<?xml version="1.0" encoding="ISO-8859-1"?>
<modeling>
 <generator>
  <i name="program" type="string">vasp </i>
  <i name="version" type="string">5.4.1  </i>
  <i name="subversion" type="string">24Jun15 (build Mar  6 2017 20:45:23) complex                          parallel </i>
  <i name="platform" type="string">IFC91_ompi </i>
  <i name="date" type="string">2017 10 30 </i>
  <i name="time" type="string">10:53:58 </i>
 </generator>
 <incar>
  <i type="string" name="PREC">accurate</i>
  <i type="string" name="ALGO"> Fast</i>
  <i type="int" name="ISPIN">     1</i>
  <i type="int" name="ICHARG">    11</i>
  <i type="int" name="NELM">   100</i>
  <i type="int" name="NELMIN">     5</i>
  <i type="int" name="IBRION">    -1</i>
  <i name="EDIFF">      0.00000001</i>
  <i type="int" name="ISIF">     2</i>
  <i name="ENCUT">    300.00000000</i>
  <i type="int" name="ISMEAR">     1</i>
  <i name="SIGMA">      0.05000000</i>
  <i type="int" name="NWRITE">     3</i>
  <i type="logical" name="LWAVE"> T  </i>
  <v type="int" name="KPOINT_BSE">    -1     0     0     0</v>
  <i type="int" name="NELM">   100</i>
 </incar>
 <kpoints>
  <generation param="Monkhorst-Pack">
   <v type="int" name="divisions">       4        4        2 </v>
   <v name="usershift">      0.00000000       0.00000000       0.00000000 </v>
   <v name="genvec1">      0.25000000       0.00000000       0.00000000 </v>
   <v name="genvec2">      0.00000000       0.25000000       0.00000000 </v>
   <v name="genvec3">      0.00000000       0.00000000       0.50000000 </v>
   <v name="shift">      0.50000000       0.50000000       0.50000000 </v>
  </generation>
  <varray name="kpointlist" >
   <v>       0.12500000       0.12500000       0.25000000 </v>
   <v>       0.37500000       0.12500000       0.25000000 </v>
   <v>       0.37500000       0.37500000       0.25000000 </v>
  </varray>
  <varray name="weights" >
   <v>       0.25000000 </v>
   <v>       0.50000000 </v>
   <v>       0.25000000 </v>
  </varray>
 </kpoints>
 <parameters>
  <separator name="general" >
   <i type="string" name="SYSTEM">unknown system</i>
   <i type="logical" name="LCOMPAT"> F  </i>
  </separator>
  <separator name="electronic" >
   <i type="string" name="PREC">accura</i>
   <i name="ENMAX">    300.00000000</i>
   <i name="ENAUG">    578.34200000</i>
   <i name="EDIFF">      0.00000001</i>
   <i type="int" name="IALGO">    68</i>
   <i type="int" name="IWAVPR">    10</i>
   <i type="int" name="NBANDS">    24</i>
   <i name="NELECT">     40.00000000</i>
   <i type="int" name="TURBO">     0</i>
   <i type="int" name="IRESTART">     0</i>
   <i type="int" name="NREBOOT">     0</i>
   <i type="int" name="NMIN">     0</i>
   <i name="EREF">      0.00000000</i>
   <separator name="electronic smearing" >
    <i type="int" name="ISMEAR">     1</i>
    <i name="SIGMA">      0.05000000</i>
    <i name="KSPACING">      0.50000000</i>
    <i type="logical" name="KGAMMA"> T  </i>
   </separator>
   <separator name="electronic projectors" >
    <i type="logical" name="LREAL"> F  </i>
    <v name="ROPT">      0.00000000      0.00000000</v>
    <i type="int" name="LMAXPAW">  -100</i>
    <i type="int" name="LMAXMIX">     2</i>
    <i type="logical" name="NLSPLINE"> F  </i>
   </separator>
   <separator name="electronic startup" >
    <i type="int" name="ISTART">     1</i>
    <i type="int" name="ICHARG">    11</i>
    <i type="int" name="INIWAV">     1</i>
   </separator>
   <separator name="electronic spin" >
    <i type="int" name="ISPIN">     1</i>
    <i type="logical" name="LNONCOLLINEAR"> F  </i>
    <v name="MAGMOM">      1.00000000      1.00000000      1.00000000      1.00000000</v>
    <i name="NUPDOWN">     -1.00000000</i>
    <i type="logical" name="LSORBIT"> F  </i>
    <v name="SAXIS">      0.00000000      0.00000000      1.00000000</v>
    <i type="logical" name="LSPIRAL"> F  </i>
    <v name="QSPIRAL">      0.00000000      0.00000000      0.00000000</v>
    <i type="logical" name="LZEROZ"> F  </i>
   </separator>
   <separator name="electronic exchange-correlation" >
    <i type="logical" name="LASPH"> F  </i>
    <i type="logical" name="LMETAGGA"> F  </i>
   </separator>
   <separator name="electronic convergence" >
    <i type="int" name="NELM">   100</i>
    <i type="int" name="NELMDL">     0</i>
    <i type="int" name="NELMIN">     5</i>
    <i name="ENINI">    300.00000000</i>
    <separator name="electronic convergence detail" >
     <i type="logical" name="LDIAG"> T  </i>
     <i type="logical" name="LSUBROT"> F  </i>
     <i name="WEIMIN">      0.00000000</i>
     <i name="EBREAK">      0.00000000</i>
     <i name="DEPER">      0.30000000</i>
     <i type="int" name="NRMM">     4</i>
     <i name="TIME">      0.40000000</i>
    </separator>
   </separator>
   <separator name="electronic mixer" >
    <i name="AMIX">      0.40000000</i>
    <i name="BMIX">      1.00000000</i>
    <i name="AMIN">      0.10000000</i>
    <i name="AMIX_MAG">      1.60000000</i>
    <i name="BMIX_MAG">      1.00000000</i>
    <separator name="electronic mixer details" >
     <i type="int" name="IMIX">     4</i>
     <i type="logical" name="MIXFIRST"> F  </i>
     <i type="int" name="MAXMIX">   -45</i>
     <i name="WC">    100.00000000</i>
     <i type="int" name="INIMIX">     1</i>
     <i type="int" name="MIXPRE">     1</i>
     <i type="int" name="MREMOVE">     5</i>
    </separator>
   </separator>
   <separator name="electronic dipolcorrection" >
    <i type="logical" name="LDIPOL"> F  </i>
    <i type="logical" name="LMONO"> F  </i>
    <i type="int" name="IDIPOL">     0</i>
    <i name="EPSILON">      1.00000000</i>
    <v name="DIPOL">   -100.00000000   -100.00000000   -100.00000000</v>
    <i name="EFIELD">      0.00000000</i>
   </separator>
  </separator>
  <separator name="grids" >
   <i type="int" name="NGX">    24</i>
   <i type="int" name="NGY">    24</i>
   <i type="int" name="NGZ">    36</i>
   <i type="int" name="NGXF">    48</i>
   <i type="int" name="NGYF">    48</i>
   <i type="int" name="NGZF">    72</i>
   <i type="logical" name="ADDGRID"> F  </i>
  </separator>
  <separator name="ionic" >
   <i type="int" name="NSW">     0</i>
   <i type="int" name="IBRION">    -1</i>
   <i type="int" name="ISIF">     2</i>
   <i name="PSTRESS">      0.00000000</i>
   <i name="EDIFFG">      0.00000010</i>
   <i type="int" name="NFREE">     0</i>
   <i name="POTIM">      0.50000000</i>
   <i name="SMASS">     -3.00000000</i>
   <i name="SCALEE">      1.00000000</i>
  </separator>
  <separator name="ionic md" >
   <i name="TEBEG">      0.00010000</i>
   <i name="TEEND">      0.00010000</i>
   <i type="int" name="NBLOCK">     1</i>
   <i type="int" name="KBLOCK">     1</i>
   <i type="int" name="NPACO">   256</i>
   <i name="APACO">     16.00000000</i>
  </separator>
  <separator name="symmetry" >
   <i type="int" name="ISYM">     2</i>
   <i name="SYMPREC">      0.00001000</i>
  </separator>
  <separator name="dos" >
   <i type="logical" name="LORBIT"> T  </i>
   <v name="RWIGS">     -1.00000000     -1.00000000</v>
   <i type="int" name="NEDOS">   301</i>
   <i name="EMIN">     10.00000000</i>
   <i name="EMAX">    -10.00000000</i>
   <i name="EFERMI">      0.00000000</i>
  </separator>
  <separator name="writing" >
   <i type="int" name="NWRITE">     3</i>
   <i type="logical" name="LWAVE"> T  </i>
   <i type="logical" name="LCHARG"> T  </i>
   <i type="logical" name="LPARD"> F  </i>
   <i type="logical" name="LVTOT"> F  </i>
   <i type="logical" name="LVHAR"> F  </i>
   <i type="logical" name="LELF"> F  </i>
   <i type="logical" name="LOPTICS"> F  </i>
   <v name="STM">      0.00000000      0.00000000      0.00000000      0.00000000      0.00000000      0.00000000      0.00000000</v>
  </separator>
  <separator name="performance" >
   <i type="int" name="NPAR">     1</i>
   <i type="int" name="NSIM">     4</i>
   <i type="int" name="NBLK">    -1</i>
   <i type="logical" name="LPLANE"> T  </i>
   <i type="logical" name="LSCALAPACK"> T  </i>
   <i type="logical" name="LSCAAWARE"> F  </i>
   <i type="logical" name="LSCALU"> F  </i>
   <i type="logical" name="LASYNC"> F  </i>
   <i type="logical" name="LORBITALREAL"> F  </i>
  </separator>
  <separator name="miscellaneous" >
   <i type="int" name="IDIOT">     3</i>
   <i type="logical" name="LMUSIC"> F  </i>
   <v name="POMASS">     55.84700000     78.96000000</v>
   <v name="DARWINR">      0.00000000      0.00000000</v>
   <v name="DARWINV">      1.00000000      1.00000000</v>
   <i type="logical" name="LCORR"> T  </i>
  </separator>
  <i type="logical" name="GGA_COMPAT"> T  </i>
  <i type="logical" name="LBERRY"> F  </i>
  <i type="int" name="ICORELEVEL">     0</i>
  <i type="logical" name="LDAU"> F  </i>
  <i type="int" name="I_CONSTRAINED_M">     0</i>
  <separator name="electronic exchange-correlation" >
   <i type="string" name="GGA">--</i>
   <i type="int" name="VOSKOWN">     0</i>
   <i type="logical" name="LHFCALC"> F  </i>
   <i type="string" name="PRECFOCK"></i>
   <i type="logical" name="LSYMGRAD"> F  </i>
   <i type="logical" name="LHFONE"> F  </i>
   <i type="logical" name="LRHFCALC"> F  </i>
   <i type="logical" name="LTHOMAS"> F  </i>
   <i type="logical" name="LMODELHF"> F  </i>
   <i name="ENCUT4O">     -1.00000000</i>
   <i type="int" name="EXXOEP">     0</i>
   <i type="int" name="FOURORBIT">     0</i>
   <i name="AEXX">      0.00000000</i>
   <i name="HFALPHA">      0.00000000</i>
   <i name="MCALPHA">      0.00000000</i>
   <i name="ALDAX">      1.00000000</i>
   <i name="AGGAX">      1.00000000</i>
   <i name="ALDAC">      1.00000000</i>
   <i name="AGGAC">      1.00000000</i>
   <i type="int" name="NKREDX">     1</i>
   <i type="int" name="NKREDY">     1</i>
   <i type="int" name="NKREDZ">     1</i>
   <i type="logical" name="SHIFTRED"> F  </i>
   <i type="logical" name="ODDONLY"> F  </i>
   <i type="logical" name="EVENONLY"> F  </i>
   <i type="int" name="LMAXFOCK">     0</i>
   <i type="int" name="NMAXFOCKAE">     0</i>
   <i type="logical" name="LFOCKAEDFT"> F  </i>
   <i name="HFSCREEN">      0.00000000</i>
   <i name="HFSCREENC">      0.00000000</i>
   <i type="int" name="NBANDSGWLOW">     0</i>
  </separator>
  <separator name="vdW DFT" >
   <i type="logical" name="LUSE_VDW"> F  </i>
   <i name="Zab_VDW">     -0.84910000</i>
   <i name="PARAM1">      0.12340000</i>
   <i name="PARAM2">      1.00000000</i>
   <i name="PARAM3">      0.00000000</i>
  </separator>
  <separator name="model GW" >
   <i type="int" name="MODEL_GW">     0</i>
   <i name="MODEL_EPS0">     11.74750775</i>
   <i name="MODEL_ALPHA">      1.00000000</i>
  </separator>
  <separator name="linear response parameters" >
   <i type="logical" name="LEPSILON"> F  </i>
   <i type="logical" name="LRPA"> F  </i>
   <i type="logical" name="LNABLA"> F  </i>
   <i type="logical" name="LVEL"> F  </i>
   <i type="int" name="KINTER">     0</i>
   <i name="CSHIFT">      0.10000000</i>
   <i name="OMEGAMAX">     -1.00000000</i>
   <i name="DEG_THRESHOLD">      0.00200000</i>
  </separator>
  <separator name="orbital magnetization" >
   <i type="logical" name="NUCIND"> F  </i>
   <v name="MAGPOS">      0.00000000      0.00000000      0.00000000</v>
   <i type="logical" name="LNICSALL"> T  </i>
   <i type="logical" name="ORBITALMAG"> F  </i>
   <i type="logical" name="LMAGBLOCH"> F  </i>
   <i type="logical" name="LCHIMAG"> F  </i>
   <i type="logical" name="LGAUGE"> T  </i>
   <i type="int" name="MAGATOM">     0</i>
   <v name="MAGDIPOL">      0.00000000      0.00000000      0.00000000</v>
   <v name="AVECCONST">      0.00000000      0.00000000      0.00000000</v>
  </separator>
  <separator name="response functions" >
   <i type="logical" name="LADDER"> F  </i>
   <i type="logical" name="LFXC"> F  </i>
   <i type="logical" name="LHARTREE"> T  </i>
   <i type="int" name="IBSE">     0</i>
   <v type="int" name="KPOINT">    -1     0     0     0</v>
   <i type="logical" name="LTCTE"> F  </i>
   <i type="logical" name="LTETE"> F  </i>
   <i type="logical" name="LTRIPLET"> F  </i>
   <i type="logical" name="LFXCEPS"> F  </i>
   <i type="logical" name="LFXHEG"> F  </i>
   <i type="int" name="NATURALO">     0</i>
   <i type="logical" name="L2ORDER"> F  </i>
   <i type="logical" name="LUSEW"> F  </i>
   <i name="ENCUTGW">     -2.00000000</i>
   <i name="ENCUTGWSOFT">     -2.00000000</i>
   <i name="ENCUTLF">     -1.00000000</i>
   <i type="int" name="LMAXMP2">    -1</i>
   <i name="SCISSOR">      0.00000000</i>
   <i type="int" name="NOMEGA">     0</i>
   <i type="int" name="NOMEGAR">     0</i>
   <i type="int" name="NBANDSGW">    -1</i>
   <i type="int" name="NBANDSO">    -1</i>
   <i type="int" name="NBANDSV">    -1</i>
   <i type="int" name="NELM">   100</i>
   <i type="int" name="NELMHF">     1</i>
   <i type="int" name="DIM">     3</i>
   <i type="int" name="ANTIRES">     0</i>
   <i name="OMEGAMAX">    -30.00000000</i>
   <i name="OMEGAMIN">    -30.00000000</i>
   <i name="OMEGATL">   -200.00000000</i>
   <i type="int" name="OMEGAGRID">     0</i>
   <i name="CSHIFT">     -0.10000000</i>
   <i type="logical" name="SELFENERGY"> F  </i>
   <i type="logical" name="LSPECTRAL"> F  </i>
   <i type="logical" name="LSPECTRALGW"> F  </i>
   <i type="logical" name="LSINGLES"> F  </i>
   <i type="logical" name="LFERMIGW"> F  </i>
   <i type="logical" name="ODDONLYGW"> F  </i>
   <i type="logical" name="EVENONLYGW"> F  </i>
   <i type="int" name="NKREDLFX">     1</i>
   <i type="int" name="NKREDLFY">     1</i>
   <i type="int" name="NKREDLFZ">     1</i>
   <i type="int" name="MAXMEM">  1800</i>
   <i type="int" name="TELESCOPE">     0</i>
   <i type="int" name="TAUPAR">     1</i>
   <i type="int" name="OMEGAPAR">    -1</i>
   <i name="LAMBDA">      1.00000000</i>
  </separator>
  <separator name="External order field" >
   <i name="OFIELD_KAPPA">      0.00000000</i>
   <v name="OFIELD_K">      0.00000000      0.00000000      0.00000000</v>
   <i name="OFIELD_Q6_NEAR">      0.00000000</i>
   <i name="OFIELD_Q6_FAR">      0.00000000</i>
   <i name="OFIELD_A">      0.00000000</i>
  </separator>
 </parameters>
 <atominfo>
  <atoms>       4 </atoms>
  <types>       2 </types>
  <array name="atoms" >
   <dimension dim="1">ion</dimension>
   <field type="string">element</field>
   <field type="int">atomtype</field>
   <set>
    <rc><c>Fe</c><c>   1</c></rc>
    <rc><c>Fe</c><c>   1</c></rc>
    <rc><c>Se</c><c>   2</c></rc>
    <rc><c>Se</c><c>   2</c></rc>
   </set>
  </array>
  <array name="atomtypes" >
   <dimension dim="1">type</dimension>
   <field type="int">atomspertype</field>
   <field type="string">element</field>
   <field>mass</field>
   <field>valence</field>
   <field type="string">pseudopotential</field>
   <set>
    <rc><c>   2</c><c>Fe</c><c>     55.84700000</c><c>     14.00000000</c><c>  PAW_PBE Fe_pv 02Aug2007               </c></rc>
    <rc><c>   2</c><c>Se</c><c>     78.96000000</c><c>      6.00000000</c><c>  PAW_PBE Se 06Sep2000                  </c></rc>
   </set>
  </array>
 </atominfo>
 <structure name="initialpos" >
  <crystal>
   <varray name="basis" >
    <v>       3.65142400       0.00000000       0.00000000 </v>
    <v>       0.00000000       3.65142400       0.00000000 </v>
    <v>       0.00000000       0.00000000       5.87394600 </v>
   </varray>
   <i name="volume">     78.31671834 </i>
   <varray name="rec_basis" >
    <v>       0.27386576       0.00000000       0.00000000 </v>
    <v>       0.00000000       0.27386576       0.00000000 </v>
    <v>       0.00000000       0.00000000       0.17024331 </v>
   </varray>
  </crystal>
  <varray name="positions" >
   <v>       0.00000000       0.00000000       0.00000000 </v>
   <v>       0.50000000       0.50000000       0.00000000 </v>
   <v>       0.00000000       0.50000000       0.24120400 </v>
   <v>       0.50000000       0.00000000       0.75879700 </v>
  </varray>
 </structure>
 <calculation>
  <scstep>
   <time name="dav">    0.17    0.18</time>
   <time name="total">    0.31    0.31</time>
   <energy>
    <i name="alphaZ">    150.82517259 </i>
    <i name="ewald">  -2417.27147393 </i>
    <i name="hartreedc">  -2615.93882813 </i>
    <i name="XCdc">    140.15897770 </i>
    <i name="pawpsdc">   5153.03625999 </i>
    <i name="pawaedc">  -5306.93080730 </i>
    <i name="eentropy">      0.00528129 </i>
    <i name="bandstr">   -557.40035104 </i>
    <i name="atom">   5428.96091767 </i>
    <i name="e_fr_energy">    -24.55485116 </i>
    <i name="e_wo_entrp">    -24.56013245 </i>
    <i name="e_0_energy">    -24.55661159 </i>
   </energy>
  </scstep>
  <scstep>
   <time name="diag">    0.06    0.06</time>
   <time name="diis">    0.09    0.09</time>
   <time name="orth">    0.00    0.00</time>
   <time name="total">    0.17    0.17</time>
   <energy>
    <i name="e_fr_energy">    -24.55485116 </i>
    <i name="e_wo_entrp">    -24.56013245 </i>
    <i name="e_0_energy">    -24.55661159 </i>
   </energy>
  </scstep>
  <scstep>
   <time name="diag">    0.06    0.06</time>
   <time name="diis">    0.08    0.08</time>
   <time name="orth">    0.00    0.00</time>
   <time name="total">    0.16    0.16</time>
   <energy>
    <i name="e_fr_energy">    -24.55485116 </i>
    <i name="e_wo_entrp">    -24.56013245 </i>
    <i name="e_0_energy">    -24.55661159 </i>
   </energy>
  </scstep>
  <scstep>
   <time name="diag">    0.06    0.06</time>
   <time name="diis">    0.08    0.08</time>
   <time name="orth">    0.00    0.00</time>
   <time name="total">    0.15    0.15</time>
   <energy>
    <i name="e_fr_energy">    -24.55485116 </i>
    <i name="e_wo_entrp">    -24.56013245 </i>
    <i name="e_0_energy">    -24.55661159 </i>
   </energy>
  </scstep>
  <scstep>
   <time name="diag">    0.06    0.06</time>
   <time name="diis">    0.08    0.08</time>
   <time name="orth">    0.00    0.00</time>
   <time name="total">    0.15    0.15</time>
   <energy>
    <i name="alphaZ">    150.82517259 </i>
    <i name="ewald">  -2417.27147393 </i>
    <i name="hartreedc">  -2615.93882813 </i>
    <i name="XCdc">    140.15897770 </i>
    <i name="pawpsdc">   5153.03625999 </i>
    <i name="pawaedc">  -5306.93080730 </i>
    <i name="eentropy">      0.00528129 </i>
    <i name="bandstr">   -557.40035104 </i>
    <i name="atom">   5428.96091767 </i>
    <i name="e_fr_energy">    -24.55485116 </i>
    <i name="e_wo_entrp">    -24.56013245 </i>
    <i name="e_0_energy">    -24.55661159 </i>
   </energy>
  </scstep>
  <structure>
   <crystal>
    <varray name="basis" >
     <v>       3.65142400       0.00000000       0.00000000 </v>
     <v>       0.00000000       3.65142400       0.00000000 </v>
     <v>       0.00000000       0.00000000       5.87394600 </v>
    </varray>
    <i name="volume">     78.31671834 </i>
    <varray name="rec_basis" >
     <v>       0.27386576       0.00000000       0.00000000 </v>
     <v>       0.00000000       0.27386576       0.00000000 </v>
     <v>       0.00000000       0.00000000       0.17024331 </v>
    </varray>
   </crystal>
   <varray name="positions" >
    <v>       0.00000000       0.00000000       0.00000000 </v>
    <v>       0.50000000       0.50000000       0.00000000 </v>
    <v>       0.00000000       0.50000000       0.24120400 </v>
    <v>       0.50000000       0.00000000       0.75879700 </v>
   </varray>
  </structure>
  <varray name="forces" >
   <v>      -0.00000000       0.00000000       0.00000000 </v>
   <v>      -0.00000000      -0.00000000       0.00000000 </v>
   <v>       0.00000000       0.00000000      -0.36625177 </v>
   <v>      -0.00000000       0.00000000       0.36625177 </v>
  </varray>
  <varray name="stress" >
   <v>      57.43537115       0.00000000       0.00000000 </v>
   <v>       0.00000000      57.43537115       0.00000000 </v>
   <v>      -0.00000000      -0.00000000      46.46333583 </v>
  </varray>
  <energy>
   <i name="e_fr_energy">    -24.55485116 </i>
   <i name="e_wo_entrp">    -24.55661159 </i>
   <i name="e_0_energy">      0.00528129 </i>
  </energy>
  <time name="totalsc">    1.72    1.72</time>
  <eigenvalues>
   <array>
    <dimension dim="1">band</dimension>
    <dimension dim="2">kpoint</dimension>
    <dimension dim="3">spin</dimension>
    <field>eigene</field>
    <field>occ</field>
    <set>
     <set comment="spin 1">
      <set comment="kpoint 1">
       <r>  -48.0307    1.0000 </r>
       <r>  -48.0002    1.0000 </r>
       <r>  -47.8880    1.0000 </r>
       <r>  -47.8572    1.0000 </r>
       <r>  -47.8013    1.0000 </r>
       <r>  -47.7654    1.0000 </r>
       <r>   -9.6152    1.0000 </r>
       <r>   -8.8151    1.0000 </r>
       <r>   -0.6552    1.0000 </r>
       <r>    0.1723    1.0000 </r>
       <r>    0.6018    1.0000 </r>
       <r>    0.8389    1.0000 </r>
       <r>    1.3299    1.0000 </r>
       <r>    1.7552    1.0000 </r>
       <r>    2.3579    1.0000 </r>
       <r>    4.1339    1.0000 </r>
       <r>    4.2389    1.0000 </r>
       <r>    4.2960    1.0000 </r>
       <r>    4.8829    1.0233 </r>
       <r>    4.9093    1.0307 </r>
       <r>    5.7924   -0.0000 </r>
       <r>    5.9806   -0.0000 </r>
       <r>    6.6096    0.0000 </r>
       <r>    6.9959    0.0000 </r>
      </set>
      <set comment="kpoint 2">
       <r>  -48.0120    1.0000 </r>
       <r>  -47.9533    1.0000 </r>
       <r>  -47.9385    1.0000 </r>
       <r>  -47.8790    1.0000 </r>
       <r>  -47.7905    1.0000 </r>
       <r>  -47.7754    1.0000 </r>
       <r>   -9.0901    1.0000 </r>
       <r>   -8.7342    1.0000 </r>
       <r>   -0.6411    1.0000 </r>
       <r>   -0.4607    1.0000 </r>
       <r>    0.5699    1.0000 </r>
       <r>    0.9489    1.0000 </r>
       <r>    1.1267    1.0000 </r>
       <r>    1.4999    1.0000 </r>
       <r>    2.9897    1.0000 </r>
       <r>    3.5026    1.0000 </r>
       <r>    3.8812    1.0000 </r>
       <r>    3.9994    1.0000 </r>
       <r>    4.2948    1.0000 </r>
       <r>    4.4048    1.0000 </r>
       <r>    5.6994   -0.0000 </r>
       <r>    5.8424   -0.0000 </r>
       <r>    6.4145    0.0000 </r>
       <r>    6.6436    0.0000 </r>
      </set>
      <set comment="kpoint 3">
       <r>  -48.0479    1.0000 </r>
       <r>  -48.0238    1.0000 </r>
       <r>  -47.8703    1.0000 </r>
       <r>  -47.8456    1.0000 </r>
       <r>  -47.7858    1.0000 </r>
       <r>  -47.7794    1.0000 </r>
       <r>   -8.6976    1.0000 </r>
       <r>   -8.5405    1.0000 </r>
       <r>   -0.8293    1.0000 </r>
       <r>   -0.6216    1.0000 </r>
       <r>    0.6514    1.0000 </r>
       <r>    0.9960    1.0000 </r>
       <r>    1.3407    1.0000 </r>
       <r>    1.5688    1.0000 </r>
       <r>    2.9650    1.0000 </r>
       <r>    3.1091    1.0000 </r>
       <r>    3.2424    1.0000 </r>
       <r>    3.3935    1.0000 </r>
       <r>    4.3320    1.0000 </r>
       <r>    4.6741    1.0000 </r>
       <r>    5.0101   -0.0190 </r>
       <r>    5.0211   -0.0350 </r>
       <r>    6.1220   -0.0000 </r>
       <r>    6.2246   -0.0000 </r>
      </set>
     </set>
    </set>
   </array>
  </eigenvalues>
  <separator name="orbital magnetization" >
   <v name="MAGDIPOLOUT">      0.00000000      0.00000000      0.00000000</v>
  </separator>
  <dos>
   <i name="efermi">      4.96261576 </i>
   <total>
    <array>
     <dimension dim="1">gridpoints</dimension>
     <dimension dim="2">spin</dimension>
     <field>energy</field>
     <field>total</field>
     <field>integrated</field>
     <set>
      <set comment="spin 1">
       <r>   -50.8001     0.0000     0.0000 </r>
       <r>   -50.5983     0.0000     0.0000 </r>
       <r>   -50.3965     0.0000     0.0000 </r>
       <r>   -50.1946     0.0000     0.0000 </r>
       <r>   -49.9928     0.0000     0.0000 </r>
       <r>   -49.7910     0.0000     0.0000 </r>
       <r>   -49.5891     0.0000     0.0000 </r>
       <r>   -49.3873     0.0000     0.0000 </r>
       <r>   -49.1855     0.0000     0.0000 </r>
       <r>   -48.9837     0.0000     0.0000 </r>
       <r>   -48.7818     0.0000     0.0000 </r>
       <r>   -48.5800    -0.0000    -0.0000 </r>
       <r>   -48.3782    -0.0000    -0.0000 </r>
       <r>   -48.1764    -0.0027    -0.0006 </r>
       <r>   -47.9745    15.5646     3.1408 </r>
       <r>   -47.7727    37.2896    10.6669 </r>
       <r>   -47.5709     6.6053    12.0000 </r>
       <r>   -47.3690    -0.0000    12.0000 </r>
       <r>   -47.1672     0.0000    12.0000 </r>
       <r>   -46.9654     0.0000    12.0000 </r>
       <r>   -46.7636     0.0000    12.0000 </r>
       <r>   -46.5617     0.0000    12.0000 </r>
       <r>   -46.3599     0.0000    12.0000 </r>
       <r>   -46.1581     0.0000    12.0000 </r>
       <r>   -45.9563     0.0000    12.0000 </r>
       <r>   -45.7544     0.0000    12.0000 </r>
       <r>   -45.5526     0.0000    12.0000 </r>
       <r>   -45.3508     0.0000    12.0000 </r>
       <r>   -45.1489     0.0000    12.0000 </r>
       <r>   -44.9471     0.0000    12.0000 </r>
       <r>   -44.7453     0.0000    12.0000 </r>
       <r>   -44.5435     0.0000    12.0000 </r>
       <r>   -44.3416     0.0000    12.0000 </r>
       <r>   -44.1398     0.0000    12.0000 </r>
       <r>   -43.9380     0.0000    12.0000 </r>
       <r>   -43.7362     0.0000    12.0000 </r>
       <r>   -43.5343     0.0000    12.0000 </r>
       <r>   -43.3325     0.0000    12.0000 </r>
       <r>   -43.1307     0.0000    12.0000 </r>
       <r>   -42.9288     0.0000    12.0000 </r>
       <r>   -42.7270     0.0000    12.0000 </r>
       <r>   -42.5252     0.0000    12.0000 </r>
       <r>   -42.3234     0.0000    12.0000 </r>
       <r>   -42.1215     0.0000    12.0000 </r>
       <r>   -41.9197     0.0000    12.0000 </r>
       <r>   -41.7179     0.0000    12.0000 </r>
       <r>   -41.5160     0.0000    12.0000 </r>
       <r>   -41.3142     0.0000    12.0000 </r>
       <r>   -41.1124     0.0000    12.0000 </r>
       <r>   -40.9106     0.0000    12.0000 </r>
       <r>   -40.7087     0.0000    12.0000 </r>
       <r>   -40.5069     0.0000    12.0000 </r>
       <r>   -40.3051     0.0000    12.0000 </r>
       <r>   -40.1033     0.0000    12.0000 </r>
       <r>   -39.9014     0.0000    12.0000 </r>
       <r>   -39.6996     0.0000    12.0000 </r>
       <r>   -39.4978     0.0000    12.0000 </r>
       <r>   -39.2959     0.0000    12.0000 </r>
       <r>   -39.0941     0.0000    12.0000 </r>
       <r>   -38.8923     0.0000    12.0000 </r>
       <r>   -38.6905     0.0000    12.0000 </r>
       <r>   -38.4886     0.0000    12.0000 </r>
       <r>   -38.2868     0.0000    12.0000 </r>
       <r>   -38.0850     0.0000    12.0000 </r>
       <r>   -37.8832     0.0000    12.0000 </r>
       <r>   -37.6813     0.0000    12.0000 </r>
       <r>   -37.4795     0.0000    12.0000 </r>
       <r>   -37.2777     0.0000    12.0000 </r>
       <r>   -37.0758     0.0000    12.0000 </r>
       <r>   -36.8740     0.0000    12.0000 </r>
       <r>   -36.6722     0.0000    12.0000 </r>
       <r>   -36.4704     0.0000    12.0000 </r>
       <r>   -36.2685     0.0000    12.0000 </r>
       <r>   -36.0667     0.0000    12.0000 </r>
       <r>   -35.8649     0.0000    12.0000 </r>
       <r>   -35.6631     0.0000    12.0000 </r>
       <r>   -35.4612     0.0000    12.0000 </r>
       <r>   -35.2594     0.0000    12.0000 </r>
       <r>   -35.0576     0.0000    12.0000 </r>
       <r>   -34.8557     0.0000    12.0000 </r>
       <r>   -34.6539     0.0000    12.0000 </r>
       <r>   -34.4521     0.0000    12.0000 </r>
       <r>   -34.2503     0.0000    12.0000 </r>
       <r>   -34.0484     0.0000    12.0000 </r>
       <r>   -33.8466     0.0000    12.0000 </r>
       <r>   -33.6448     0.0000    12.0000 </r>
       <r>   -33.4430     0.0000    12.0000 </r>
       <r>   -33.2411     0.0000    12.0000 </r>
       <r>   -33.0393     0.0000    12.0000 </r>
       <r>   -32.8375     0.0000    12.0000 </r>
       <r>   -32.6356     0.0000    12.0000 </r>
       <r>   -32.4338     0.0000    12.0000 </r>
       <r>   -32.2320     0.0000    12.0000 </r>
       <r>   -32.0302     0.0000    12.0000 </r>
       <r>   -31.8283     0.0000    12.0000 </r>
       <r>   -31.6265     0.0000    12.0000 </r>
       <r>   -31.4247     0.0000    12.0000 </r>
       <r>   -31.2229     0.0000    12.0000 </r>
       <r>   -31.0210     0.0000    12.0000 </r>
       <r>   -30.8192     0.0000    12.0000 </r>
       <r>   -30.6174     0.0000    12.0000 </r>
       <r>   -30.4155     0.0000    12.0000 </r>
       <r>   -30.2137     0.0000    12.0000 </r>
       <r>   -30.0119     0.0000    12.0000 </r>
       <r>   -29.8101     0.0000    12.0000 </r>
       <r>   -29.6082     0.0000    12.0000 </r>
       <r>   -29.4064     0.0000    12.0000 </r>
       <r>   -29.2046     0.0000    12.0000 </r>
       <r>   -29.0028     0.0000    12.0000 </r>
       <r>   -28.8009     0.0000    12.0000 </r>
       <r>   -28.5991     0.0000    12.0000 </r>
       <r>   -28.3973     0.0000    12.0000 </r>
       <r>   -28.1954     0.0000    12.0000 </r>
       <r>   -27.9936     0.0000    12.0000 </r>
       <r>   -27.7918     0.0000    12.0000 </r>
       <r>   -27.5900     0.0000    12.0000 </r>
       <r>   -27.3881     0.0000    12.0000 </r>
       <r>   -27.1863     0.0000    12.0000 </r>
       <r>   -26.9845     0.0000    12.0000 </r>
       <r>   -26.7827     0.0000    12.0000 </r>
       <r>   -26.5808     0.0000    12.0000 </r>
       <r>   -26.3790     0.0000    12.0000 </r>
       <r>   -26.1772     0.0000    12.0000 </r>
       <r>   -25.9753     0.0000    12.0000 </r>
       <r>   -25.7735     0.0000    12.0000 </r>
       <r>   -25.5717     0.0000    12.0000 </r>
       <r>   -25.3699     0.0000    12.0000 </r>
       <r>   -25.1680     0.0000    12.0000 </r>
       <r>   -24.9662     0.0000    12.0000 </r>
       <r>   -24.7644     0.0000    12.0000 </r>
       <r>   -24.5626     0.0000    12.0000 </r>
       <r>   -24.3607     0.0000    12.0000 </r>
       <r>   -24.1589     0.0000    12.0000 </r>
       <r>   -23.9571     0.0000    12.0000 </r>
       <r>   -23.7552     0.0000    12.0000 </r>
       <r>   -23.5534     0.0000    12.0000 </r>
       <r>   -23.3516     0.0000    12.0000 </r>
       <r>   -23.1498     0.0000    12.0000 </r>
       <r>   -22.9479     0.0000    12.0000 </r>
       <r>   -22.7461     0.0000    12.0000 </r>
       <r>   -22.5443     0.0000    12.0000 </r>
       <r>   -22.3425     0.0000    12.0000 </r>
       <r>   -22.1406     0.0000    12.0000 </r>
       <r>   -21.9388     0.0000    12.0000 </r>
       <r>   -21.7370     0.0000    12.0000 </r>
       <r>   -21.5351     0.0000    12.0000 </r>
       <r>   -21.3333     0.0000    12.0000 </r>
       <r>   -21.1315     0.0000    12.0000 </r>
       <r>   -20.9297     0.0000    12.0000 </r>
       <r>   -20.7278     0.0000    12.0000 </r>
       <r>   -20.5260     0.0000    12.0000 </r>
       <r>   -20.3242     0.0000    12.0000 </r>
       <r>   -20.1224     0.0000    12.0000 </r>
       <r>   -19.9205     0.0000    12.0000 </r>
       <r>   -19.7187     0.0000    12.0000 </r>
       <r>   -19.5169     0.0000    12.0000 </r>
       <r>   -19.3150     0.0000    12.0000 </r>
       <r>   -19.1132     0.0000    12.0000 </r>
       <r>   -18.9114     0.0000    12.0000 </r>
       <r>   -18.7096     0.0000    12.0000 </r>
       <r>   -18.5077     0.0000    12.0000 </r>
       <r>   -18.3059     0.0000    12.0000 </r>
       <r>   -18.1041     0.0000    12.0000 </r>
       <r>   -17.9023     0.0000    12.0000 </r>
       <r>   -17.7004     0.0000    12.0000 </r>
       <r>   -17.4986     0.0000    12.0000 </r>
       <r>   -17.2968     0.0000    12.0000 </r>
       <r>   -17.0949     0.0000    12.0000 </r>
       <r>   -16.8931     0.0000    12.0000 </r>
       <r>   -16.6913     0.0000    12.0000 </r>
       <r>   -16.4895     0.0000    12.0000 </r>
       <r>   -16.2876     0.0000    12.0000 </r>
       <r>   -16.0858     0.0000    12.0000 </r>
       <r>   -15.8840     0.0000    12.0000 </r>
       <r>   -15.6822     0.0000    12.0000 </r>
       <r>   -15.4803     0.0000    12.0000 </r>
       <r>   -15.2785     0.0000    12.0000 </r>
       <r>   -15.0767     0.0000    12.0000 </r>
       <r>   -14.8748     0.0000    12.0000 </r>
       <r>   -14.6730     0.0000    12.0000 </r>
       <r>   -14.4712     0.0000    12.0000 </r>
       <r>   -14.2694     0.0000    12.0000 </r>
       <r>   -14.0675     0.0000    12.0000 </r>
       <r>   -13.8657     0.0000    12.0000 </r>
       <r>   -13.6639     0.0000    12.0000 </r>
       <r>   -13.4621     0.0000    12.0000 </r>
       <r>   -13.2602     0.0000    12.0000 </r>
       <r>   -13.0584     0.0000    12.0000 </r>
       <r>   -12.8566     0.0000    12.0000 </r>
       <r>   -12.6547     0.0000    12.0000 </r>
       <r>   -12.4529     0.0000    12.0000 </r>
       <r>   -12.2511     0.0000    12.0000 </r>
       <r>   -12.0493     0.0000    12.0000 </r>
       <r>   -11.8474     0.0000    12.0000 </r>
       <r>   -11.6456     0.0000    12.0000 </r>
       <r>   -11.4438     0.0000    12.0000 </r>
       <r>   -11.2420     0.0000    12.0000 </r>
       <r>   -11.0401     0.0000    12.0000 </r>
       <r>   -10.8383     0.0000    12.0000 </r>
       <r>   -10.6365     0.0000    12.0000 </r>
       <r>   -10.4346     0.0000    12.0000 </r>
       <r>   -10.2328     0.0000    12.0000 </r>
       <r>   -10.0310    -0.0000    12.0000 </r>
       <r>    -9.8292    -0.0000    12.0000 </r>
       <r>    -9.6273     0.7442    12.1502 </r>
       <r>    -9.4255     1.7331    12.5000 </r>
       <r>    -9.2237    -0.0026    12.4995 </r>
       <r>    -9.0219     5.1205    13.5329 </r>
       <r>    -8.8200     0.7782    13.6900 </r>
       <r>    -8.6182     8.9763    15.5017 </r>
       <r>    -8.4164     2.4722    16.0006 </r>
       <r>    -8.2145    -0.0031    16.0000 </r>
       <r>    -8.0127     0.0000    16.0000 </r>
       <r>    -7.8109     0.0000    16.0000 </r>
       <r>    -7.6091     0.0000    16.0000 </r>
       <r>    -7.4072     0.0000    16.0000 </r>
       <r>    -7.2054     0.0000    16.0000 </r>
       <r>    -7.0036     0.0000    16.0000 </r>
       <r>    -6.8018     0.0000    16.0000 </r>
       <r>    -6.5999     0.0000    16.0000 </r>
       <r>    -6.3981     0.0000    16.0000 </r>
       <r>    -6.1963     0.0000    16.0000 </r>
       <r>    -5.9944     0.0000    16.0000 </r>
       <r>    -5.7926     0.0000    16.0000 </r>
       <r>    -5.5908     0.0000    16.0000 </r>
       <r>    -5.3890     0.0000    16.0000 </r>
       <r>    -5.1871     0.0000    16.0000 </r>
       <r>    -4.9853     0.0000    16.0000 </r>
       <r>    -4.7835     0.0000    16.0000 </r>
       <r>    -4.5817     0.0000    16.0000 </r>
       <r>    -4.3798     0.0000    16.0000 </r>
       <r>    -4.1780     0.0000    16.0000 </r>
       <r>    -3.9762     0.0000    16.0000 </r>
       <r>    -3.7743     0.0000    16.0000 </r>
       <r>    -3.5725     0.0000    16.0000 </r>
       <r>    -3.3707     0.0000    16.0000 </r>
       <r>    -3.1689     0.0000    16.0000 </r>
       <r>    -2.9670     0.0000    16.0000 </r>
       <r>    -2.7652     0.0000    16.0000 </r>
       <r>    -2.5634     0.0000    16.0000 </r>
       <r>    -2.3616     0.0000    16.0000 </r>
       <r>    -2.1597     0.0000    16.0000 </r>
       <r>    -1.9579     0.0000    16.0000 </r>
       <r>    -1.7561     0.0000    16.0000 </r>
       <r>    -1.5542     0.0000    16.0000 </r>
       <r>    -1.3524    -0.0000    16.0000 </r>
       <r>    -1.1506    -0.0000    16.0000 </r>
       <r>    -0.9488    -0.0047    15.9991 </r>
       <r>    -0.7469     2.4716    16.4979 </r>
       <r>    -0.5451     9.9513    18.5063 </r>
       <r>    -0.3433     4.9343    19.5022 </r>
       <r>    -0.1415    -0.0110    19.5000 </r>
       <r>     0.0604    -0.0085    19.4983 </r>
       <r>     0.2622     2.5218    20.0072 </r>
       <r>     0.4640    -0.0633    19.9945 </r>
       <r>     0.6659     9.4141    21.8945 </r>
       <r>     0.8677     2.6641    22.4322 </r>
       <r>     1.0695     7.6782    23.9819 </r>
       <r>     1.2713     4.8790    24.9666 </r>
       <r>     1.4732     5.6474    26.1064 </r>
       <r>     1.6750     6.8614    27.4912 </r>
       <r>     1.8768     2.5249    28.0008 </r>
       <r>     2.0786    -0.0039    28.0000 </r>
       <r>     2.2805    -0.0630    27.9873 </r>
       <r>     2.4823     2.5434    28.5006 </r>
       <r>     2.6841    -0.0030    28.5000 </r>
       <r>     2.8860    -0.0902    28.4818 </r>
       <r>     3.0878     7.9978    30.0960 </r>
       <r>     3.2896     4.5096    31.0061 </r>
       <r>     3.4914     4.0398    31.8215 </r>
       <r>     3.6933     3.3619    32.5000 </r>
       <r>     3.8951     3.5652    33.2196 </r>
       <r>     4.0969     6.4570    34.5227 </r>
       <r>     4.2987     9.1960    36.3787 </r>
       <r>     4.5006    10.5616    38.5104 </r>
       <r>     4.7024     2.1891    38.9522 </r>
       <r>     4.9042     3.2958    39.6174 </r>
       <r>     5.1061     6.9221    41.0144 </r>
       <r>     5.3079    -0.0716    41.0000 </r>
       <r>     5.5097    -0.0000    41.0000 </r>
       <r>     5.7115     3.4037    41.6870 </r>
       <r>     5.9134     9.0578    43.5151 </r>
       <r>     6.1152     3.3513    44.1914 </r>
       <r>     6.3170     3.9910    44.9969 </r>
       <r>     6.5188     4.9593    45.9979 </r>
       <r>     6.7207     7.5794    47.5276 </r>
       <r>     6.9225    -0.2087    47.4855 </r>
       <r>     7.1243     2.5515    48.0004 </r>
       <r>     7.3262    -0.0021    48.0000 </r>
       <r>     7.5280     0.0000    48.0000 </r>
       <r>     7.7298     0.0000    48.0000 </r>
       <r>     7.9316     0.0000    48.0000 </r>
       <r>     8.1335     0.0000    48.0000 </r>
       <r>     8.3353     0.0000    48.0000 </r>
       <r>     8.5371     0.0000    48.0000 </r>
       <r>     8.7389     0.0000    48.0000 </r>
       <r>     8.9408     0.0000    48.0000 </r>
       <r>     9.1426     0.0000    48.0000 </r>
       <r>     9.3444     0.0000    48.0000 </r>
       <r>     9.5463     0.0000    48.0000 </r>
       <r>     9.7481     0.0000    48.0000 </r>
      </set>
     </set>
    </array>
   </total>
  </dos>
 </calculation>
 <structure name="finalpos" >
  <crystal>
   <varray name="basis" >
    <v>       3.65142400       0.00000000       0.00000000 </v>
    <v>       0.00000000       3.65142400       0.00000000 </v>
    <v>       0.00000000       0.00000000       5.87394600 </v>
   </varray>
   <i name="volume">     78.31671834 </i>
   <varray name="rec_basis" >
    <v>       0.27386576       0.00000000       0.00000000 </v>
    <v>       0.00000000       0.27386576       0.00000000 </v>
    <v>       0.00000000       0.00000000       0.17024331 </v>
   </varray>
  </crystal>
  <varray name="positions" >
   <v>       0.00000000       0.00000000       0.00000000 </v>
   <v>       0.50000000       0.50000000       0.00000000 </v>
   <v>       0.00000000       0.50000000       0.24120400 </v>
   <v>       0.50000000       0.00000000       0.75879700 </v>
  </varray>
 </structure>
</modeling>
