<?xml version="1.0" encoding="ISO-8859-1"?>
<modeling>
 <generator>
  <i name="program" type="string">vasp </i>
  <i name="version" type="string">5.4.1  </i>
  <i name="subversion" type="string">24Jun15 (build Aug 23 2017 12:26:22) complex                          parallel </i>
  <i name="platform" type="string">IFC91_ompi </i>
  <i name="date" type="string">2017 09 27 </i>
  <i name="time" type="string">13:34:22 </i>
 </generator>
 <incar>
  <i type="string" name="PREC">accurate</i>
  <i type="int" name="ISPIN">     2</i>
  <i name="AMIX">      0.20000000</i>
  <i name="BMIX">      0.00010000</i>
  <i name="AMIX_MAG">      0.80000000</i>
  <i name="BMIX_MAG">      0.00010000</i>
  <i type="int" name="IBRION">     2</i>
  <i name="EDIFF">      0.00000100</i>
  <i type="int" name="NSW">     0</i>
  <i type="int" name="ISIF">     3</i>
  <i name="ENCUT">    500.00000000</i>
  <v name="MAGMOM">      3.00000000      3.00000000      3.00000000      3.00000000</v>
  <i type="string" name="LREAL">Auto</i>
  <i type="int" name="ISMEAR">     1</i>
  <i name="SIGMA">      0.10000000</i>
  <i type="int" name="NWRITE">     3</i>
  <i type="logical" name="LWAVE"> T  </i>
  <i type="logical" name="LVTOT"> F  </i>
  <i type="logical" name="LVHAR"> F  </i>
  <i type="logical" name="LORBIT"> F  </i>
  <i type="logical" name="LOPTICS"> T  </i>
  <v type="int" name="KPOINT_BSE">    -1     0     0     0</v>
  <i type="string" name="GGA">BO</i>
  <i name="PARAM1">      0.18333333</i>
  <i name="PARAM2">      0.22000000</i>
  <i type="logical" name="LUSE_VDW"> T  </i>
  <i name="AGGAC">      0.00000000</i>
 </incar>
 <kpoints>
  <generation param="Gamma">
   <v type="int" name="divisions">      14       11        1 </v>
   <v name="usershift">      0.00000000       0.00000000       0.00000000 </v>
   <v name="genvec1">      0.07142857       0.00000000       0.00000000 </v>
   <v name="genvec2">      0.00000000       0.09090909       0.00000000 </v>
   <v name="genvec3">      0.00000000       0.00000000       1.00000000 </v>
   <v name="shift">      0.00000000       0.00000000       0.00000000 </v>
  </generation>
  <varray name="kpointlist" >
   <v>       0.00000000       0.00000000       0.00000000 </v>
   <v>       0.07142857       0.00000000       0.00000000 </v>
   <v>       0.14285714       0.00000000       0.00000000 </v>
   <v>       0.21428571       0.00000000       0.00000000 </v>
   <v>       0.28571429       0.00000000       0.00000000 </v>
   <v>       0.35714286       0.00000000       0.00000000 </v>
   <v>       0.42857143       0.00000000       0.00000000 </v>
   <v>       0.50000000       0.00000000       0.00000000 </v>
   <v>       0.00000000       0.09090909       0.00000000 </v>
   <v>       0.07142857       0.09090909       0.00000000 </v>
   <v>       0.14285714       0.09090909       0.00000000 </v>
   <v>       0.21428571       0.09090909       0.00000000 </v>
   <v>       0.28571429       0.09090909       0.00000000 </v>
   <v>       0.35714286       0.09090909       0.00000000 </v>
   <v>       0.42857143       0.09090909       0.00000000 </v>
   <v>       0.50000000       0.09090909       0.00000000 </v>
   <v>       0.00000000       0.18181818       0.00000000 </v>
   <v>       0.07142857       0.18181818       0.00000000 </v>
   <v>       0.14285714       0.18181818       0.00000000 </v>
   <v>       0.21428571       0.18181818       0.00000000 </v>
   <v>       0.28571429       0.18181818       0.00000000 </v>
   <v>       0.35714286       0.18181818       0.00000000 </v>
   <v>       0.42857143       0.18181818       0.00000000 </v>
   <v>       0.50000000       0.18181818       0.00000000 </v>
   <v>       0.00000000       0.27272727       0.00000000 </v>
   <v>       0.07142857       0.27272727       0.00000000 </v>
   <v>       0.14285714       0.27272727       0.00000000 </v>
   <v>       0.21428571       0.27272727       0.00000000 </v>
   <v>       0.28571429       0.27272727       0.00000000 </v>
   <v>       0.35714286       0.27272727       0.00000000 </v>
   <v>       0.42857143       0.27272727       0.00000000 </v>
   <v>       0.50000000       0.27272727       0.00000000 </v>
   <v>       0.00000000       0.36363636       0.00000000 </v>
   <v>       0.07142857       0.36363636       0.00000000 </v>
   <v>       0.14285714       0.36363636       0.00000000 </v>
   <v>       0.21428571       0.36363636       0.00000000 </v>
   <v>       0.28571429       0.36363636       0.00000000 </v>
   <v>       0.35714286       0.36363636       0.00000000 </v>
   <v>       0.42857143       0.36363636       0.00000000 </v>
   <v>       0.50000000       0.36363636       0.00000000 </v>
   <v>       0.00000000       0.45454545       0.00000000 </v>
   <v>       0.07142857       0.45454545       0.00000000 </v>
   <v>       0.14285714       0.45454545       0.00000000 </v>
   <v>       0.21428571       0.45454545       0.00000000 </v>
   <v>       0.28571429       0.45454545       0.00000000 </v>
   <v>       0.35714286       0.45454545       0.00000000 </v>
   <v>       0.42857143       0.45454545       0.00000000 </v>
   <v>       0.50000000       0.45454545       0.00000000 </v>
  </varray>
  <varray name="weights" >
   <v>       0.00649351 </v>
   <v>       0.01298701 </v>
   <v>       0.01298701 </v>
   <v>       0.01298701 </v>
   <v>       0.01298701 </v>
   <v>       0.01298701 </v>
   <v>       0.01298701 </v>
   <v>       0.00649351 </v>
   <v>       0.01298701 </v>
   <v>       0.02597403 </v>
   <v>       0.02597403 </v>
   <v>       0.02597403 </v>
   <v>       0.02597403 </v>
   <v>       0.02597403 </v>
   <v>       0.02597403 </v>
   <v>       0.01298701 </v>
   <v>       0.01298701 </v>
   <v>       0.02597403 </v>
   <v>       0.02597403 </v>
   <v>       0.02597403 </v>
   <v>       0.02597403 </v>
   <v>       0.02597403 </v>
   <v>       0.02597403 </v>
   <v>       0.01298701 </v>
   <v>       0.01298701 </v>
   <v>       0.02597403 </v>
   <v>       0.02597403 </v>
   <v>       0.02597403 </v>
   <v>       0.02597403 </v>
   <v>       0.02597403 </v>
   <v>       0.02597403 </v>
   <v>       0.01298701 </v>
   <v>       0.01298701 </v>
   <v>       0.02597403 </v>
   <v>       0.02597403 </v>
   <v>       0.02597403 </v>
   <v>       0.02597403 </v>
   <v>       0.02597403 </v>
   <v>       0.02597403 </v>
   <v>       0.01298701 </v>
   <v>       0.01298701 </v>
   <v>       0.02597403 </v>
   <v>       0.02597403 </v>
   <v>       0.02597403 </v>
   <v>       0.02597403 </v>
   <v>       0.02597403 </v>
   <v>       0.02597403 </v>
   <v>       0.01298701 </v>
  </varray>
 </kpoints>
 <parameters>
  <separator name="general" >
   <i type="string" name="SYSTEM">unknown system</i>
   <i type="logical" name="LCOMPAT"> F  </i>
  </separator>
  <separator name="electronic" >
   <i type="string" name="PREC">accura</i>
   <i name="ENMAX">    500.00000000</i>
   <i name="ENAUG">    531.35600000</i>
   <i name="EDIFF">      0.00000100</i>
   <i type="int" name="IALGO">    38</i>
   <i type="int" name="IWAVPR">    10</i>
   <i type="int" name="NBANDS">    30</i>
   <i name="NELECT">     40.00000000</i>
   <i type="int" name="TURBO">     0</i>
   <i type="int" name="IRESTART">     0</i>
   <i type="int" name="NREBOOT">     0</i>
   <i type="int" name="NMIN">     0</i>
   <i name="EREF">      0.00000000</i>
   <separator name="electronic smearing" >
    <i type="int" name="ISMEAR">     1</i>
    <i name="SIGMA">      0.10000000</i>
    <i name="KSPACING">      0.50000000</i>
    <i type="logical" name="KGAMMA"> T  </i>
   </separator>
   <separator name="electronic projectors" >
    <i type="logical" name="LREAL"> T  </i>
    <v name="ROPT">     -0.00025000     -0.00025000</v>
    <i type="int" name="LMAXPAW">  -100</i>
    <i type="int" name="LMAXMIX">     2</i>
    <i type="logical" name="NLSPLINE"> F  </i>
   </separator>
   <separator name="electronic startup" >
    <i type="int" name="ISTART">     0</i>
    <i type="int" name="ICHARG">     2</i>
    <i type="int" name="INIWAV">     1</i>
   </separator>
   <separator name="electronic spin" >
    <i type="int" name="ISPIN">     2</i>
    <i type="logical" name="LNONCOLLINEAR"> F  </i>
    <v name="MAGMOM">      3.00000000      3.00000000      3.00000000      3.00000000</v>
    <i name="NUPDOWN">     -1.00000000</i>
    <i type="logical" name="LSORBIT"> F  </i>
    <v name="SAXIS">      0.00000000      0.00000000      1.00000000</v>
    <i type="logical" name="LSPIRAL"> F  </i>
    <v name="QSPIRAL">      0.00000000      0.00000000      0.00000000</v>
    <i type="logical" name="LZEROZ"> F  </i>
   </separator>
   <separator name="electronic exchange-correlation" >
    <i type="logical" name="LASPH"> F  </i>
    <i type="logical" name="LMETAGGA"> F  </i>
   </separator>
   <separator name="electronic convergence" >
    <i type="int" name="NELM">    60</i>
    <i type="int" name="NELMDL">     0</i>
    <i type="int" name="NELMIN">     2</i>
    <i name="ENINI">    500.00000000</i>
    <separator name="electronic convergence detail" >
     <i type="logical" name="LDIAG"> T  </i>
     <i type="logical" name="LSUBROT"> F  </i>
     <i name="WEIMIN">      0.00000000</i>
     <i name="EBREAK">      0.00000001</i>
     <i name="DEPER">      0.30000000</i>
     <i type="int" name="NRMM">     4</i>
     <i name="TIME">      0.40000000</i>
    </separator>
   </separator>
   <separator name="electronic mixer" >
    <i name="AMIX">      0.20000000</i>
    <i name="BMIX">      0.00010000</i>
    <i name="AMIN">      0.10000000</i>
    <i name="AMIX_MAG">      0.80000000</i>
    <i name="BMIX_MAG">      0.00010000</i>
    <separator name="electronic mixer details" >
     <i type="int" name="IMIX">     4</i>
     <i type="logical" name="MIXFIRST"> F  </i>
     <i type="int" name="MAXMIX">   -45</i>
     <i name="WC">    100.00000000</i>
     <i type="int" name="INIMIX">     1</i>
     <i type="int" name="MIXPRE">     1</i>
     <i type="int" name="MREMOVE">     5</i>
    </separator>
   </separator>
   <separator name="electronic dipolcorrection" >
    <i type="logical" name="LDIPOL"> F  </i>
    <i type="logical" name="LMONO"> F  </i>
    <i type="int" name="IDIPOL">     0</i>
    <i name="EPSILON">      1.00000000</i>
    <v name="DIPOL">   -100.00000000   -100.00000000   -100.00000000</v>
    <i name="EFIELD">      0.00000000</i>
   </separator>
  </separator>
  <separator name="grids" >
   <i type="int" name="NGX">    28</i>
   <i type="int" name="NGY">    32</i>
   <i type="int" name="NGZ">   168</i>
   <i type="int" name="NGXF">    56</i>
   <i type="int" name="NGYF">    64</i>
   <i type="int" name="NGZF">   336</i>
   <i type="logical" name="ADDGRID"> F  </i>
  </separator>
  <separator name="ionic" >
   <i type="int" name="NSW">     0</i>
   <i type="int" name="IBRION">    -1</i>
   <i type="int" name="ISIF">     3</i>
   <i name="PSTRESS">      0.00000000</i>
   <i name="EDIFFG">      0.00001000</i>
   <i type="int" name="NFREE">     1</i>
   <i name="POTIM">      0.50000000</i>
   <i name="SMASS">     -3.00000000</i>
   <i name="SCALEE">      1.00000000</i>
  </separator>
  <separator name="ionic md" >
   <i name="TEBEG">      0.00010000</i>
   <i name="TEEND">      0.00010000</i>
   <i type="int" name="NBLOCK">     1</i>
   <i type="int" name="KBLOCK">     1</i>
   <i type="int" name="NPACO">   256</i>
   <i name="APACO">     16.00000000</i>
  </separator>
  <separator name="symmetry" >
   <i type="int" name="ISYM">     2</i>
   <i name="SYMPREC">      0.00001000</i>
  </separator>
  <separator name="dos" >
   <i type="logical" name="LORBIT"> F  </i>
   <v name="RWIGS">     -1.00000000     -1.00000000</v>
   <i type="int" name="NEDOS">   301</i>
   <i name="EMIN">     10.00000000</i>
   <i name="EMAX">    -10.00000000</i>
   <i name="EFERMI">      0.00000000</i>
  </separator>
  <separator name="writing" >
   <i type="int" name="NWRITE">     3</i>
   <i type="logical" name="LWAVE"> T  </i>
   <i type="logical" name="LCHARG"> T  </i>
   <i type="logical" name="LPARD"> F  </i>
   <i type="logical" name="LVTOT"> F  </i>
   <i type="logical" name="LVHAR"> F  </i>
   <i type="logical" name="LELF"> F  </i>
   <i type="logical" name="LOPTICS"> T  </i>
   <v name="STM">      0.00000000      0.00000000      0.00000000      0.00000000      0.00000000      0.00000000      0.00000000</v>
  </separator>
  <separator name="performance" >
   <i type="int" name="NPAR">     1</i>
   <i type="int" name="NSIM">     4</i>
   <i type="int" name="NBLK">    -1</i>
   <i type="logical" name="LPLANE"> T  </i>
   <i type="logical" name="LSCALAPACK"> T  </i>
   <i type="logical" name="LSCAAWARE"> F  </i>
   <i type="logical" name="LSCALU"> F  </i>
   <i type="logical" name="LASYNC"> F  </i>
   <i type="logical" name="LORBITALREAL"> F  </i>
  </separator>
  <separator name="miscellaneous" >
   <i type="int" name="IDIOT">     3</i>
   <i type="logical" name="LMUSIC"> F  </i>
   <v name="POMASS">     72.61000000     32.06600000</v>
   <v name="DARWINR">      0.00000000      0.00000000</v>
   <v name="DARWINV">      1.00000000      1.00000000</v>
   <i type="logical" name="LCORR"> T  </i>
  </separator>
  <i type="logical" name="GGA_COMPAT"> T  </i>
  <i type="logical" name="LBERRY"> F  </i>
  <i type="int" name="ICORELEVEL">     0</i>
  <i type="logical" name="LDAU"> F  </i>
  <i type="int" name="I_CONSTRAINED_M">     0</i>
  <separator name="electronic exchange-correlation" >
   <i type="string" name="GGA">BO</i>
   <i type="int" name="VOSKOWN">     0</i>
   <i type="logical" name="LHFCALC"> F  </i>
   <i type="string" name="PRECFOCK"></i>
   <i type="logical" name="LSYMGRAD"> F  </i>
   <i type="logical" name="LHFONE"> F  </i>
   <i type="logical" name="LRHFCALC"> F  </i>
   <i type="logical" name="LTHOMAS"> F  </i>
   <i type="logical" name="LMODELHF"> F  </i>
   <i name="ENCUT4O">     -1.00000000</i>
   <i type="int" name="EXXOEP">     0</i>
   <i type="int" name="FOURORBIT">     0</i>
   <i name="AEXX">      0.00000000</i>
   <i name="HFALPHA">      0.00000000</i>
   <i name="MCALPHA">      0.00000000</i>
   <i name="ALDAX">      1.00000000</i>
   <i name="AGGAX">      1.00000000</i>
   <i name="ALDAC">      1.00000000</i>
   <i name="AGGAC">      0.00000000</i>
   <i type="int" name="NKREDX">     1</i>
   <i type="int" name="NKREDY">     1</i>
   <i type="int" name="NKREDZ">     1</i>
   <i type="logical" name="SHIFTRED"> F  </i>
   <i type="logical" name="ODDONLY"> F  </i>
   <i type="logical" name="EVENONLY"> F  </i>
   <i type="int" name="LMAXFOCK">     0</i>
   <i type="int" name="NMAXFOCKAE">     0</i>
   <i type="logical" name="LFOCKAEDFT"> F  </i>
   <i name="HFSCREEN">      0.00000000</i>
   <i name="HFSCREENC">      0.00000000</i>
   <i type="int" name="NBANDSGWLOW">     0</i>
  </separator>
  <separator name="vdW DFT" >
   <i type="logical" name="LUSE_VDW"> T  </i>
   <i name="Zab_VDW">     -0.84910000</i>
   <i name="PARAM1">      0.18333333</i>
   <i name="PARAM2">      0.22000000</i>
   <i name="PARAM3">      0.00000000</i>
  </separator>
  <separator name="model GW" >
   <i type="int" name="MODEL_GW">     0</i>
   <i name="MODEL_EPS0">     55.07582767</i>
   <i name="MODEL_ALPHA">      1.00000000</i>
  </separator>
  <separator name="linear response parameters" >
   <i type="logical" name="LEPSILON"> F  </i>
   <i type="logical" name="LRPA"> F  </i>
   <i type="logical" name="LNABLA"> F  </i>
   <i type="logical" name="LVEL"> F  </i>
   <i type="int" name="KINTER">     0</i>
   <i name="CSHIFT">      0.10000000</i>
   <i name="OMEGAMAX">     -1.00000000</i>
   <i name="DEG_THRESHOLD">      0.00200000</i>
  </separator>
  <separator name="orbital magnetization" >
   <i type="logical" name="NUCIND"> F  </i>
   <v name="MAGPOS">      0.00000000      0.00000000      0.00000000</v>
   <i type="logical" name="LNICSALL"> T  </i>
   <i type="logical" name="ORBITALMAG"> F  </i>
   <i type="logical" name="LMAGBLOCH"> F  </i>
   <i type="logical" name="LCHIMAG"> F  </i>
   <i type="logical" name="LGAUGE"> T  </i>
   <i type="int" name="MAGATOM">     0</i>
   <v name="MAGDIPOL">      0.00000000      0.00000000      0.00000000</v>
   <v name="AVECCONST">      0.00000000      0.00000000      0.00000000</v>
  </separator>
  <separator name="response functions" >
   <i type="logical" name="LADDER"> F  </i>
   <i type="logical" name="LFXC"> F  </i>
   <i type="logical" name="LHARTREE"> T  </i>
   <i type="int" name="IBSE">     0</i>
   <v type="int" name="KPOINT">    -1     0     0     0</v>
   <i type="logical" name="LTCTE"> F  </i>
   <i type="logical" name="LTETE"> F  </i>
   <i type="logical" name="LTRIPLET"> F  </i>
   <i type="logical" name="LFXCEPS"> F  </i>
   <i type="logical" name="LFXHEG"> F  </i>
   <i type="int" name="NATURALO">     0</i>
   <i type="logical" name="L2ORDER"> F  </i>
   <i type="logical" name="LUSEW"> F  </i>
   <i name="ENCUTGW">     -2.00000000</i>
   <i name="ENCUTGWSOFT">     -2.00000000</i>
   <i name="ENCUTLF">     -1.00000000</i>
   <i type="int" name="LMAXMP2">    -1</i>
   <i name="SCISSOR">      0.00000000</i>
   <i type="int" name="NOMEGA">     0</i>
   <i type="int" name="NOMEGAR">     0</i>
   <i type="int" name="NBANDSGW">    -1</i>
   <i type="int" name="NBANDSO">    -1</i>
   <i type="int" name="NBANDSV">    -1</i>
   <i type="int" name="NELM">     1</i>
   <i type="int" name="NELMHF">     1</i>
   <i type="int" name="DIM">     3</i>
   <i type="int" name="ANTIRES">     0</i>
   <i name="OMEGAMAX">    -30.00000000</i>
   <i name="OMEGAMIN">    -30.00000000</i>
   <i name="OMEGATL">   -200.00000000</i>
   <i type="int" name="OMEGAGRID">     0</i>
   <i name="CSHIFT">     -0.10000000</i>
   <i type="logical" name="SELFENERGY"> F  </i>
   <i type="logical" name="LSPECTRAL"> F  </i>
   <i type="logical" name="LSPECTRALGW"> F  </i>
   <i type="logical" name="LSINGLES"> F  </i>
   <i type="logical" name="LFERMIGW"> F  </i>
   <i type="logical" name="ODDONLYGW"> F  </i>
   <i type="logical" name="EVENONLYGW"> F  </i>
   <i type="int" name="NKREDLFX">     1</i>
   <i type="int" name="NKREDLFY">     1</i>
   <i type="int" name="NKREDLFZ">     1</i>
   <i type="int" name="MAXMEM">  1800</i>
   <i type="int" name="TELESCOPE">     0</i>
   <i type="int" name="TAUPAR">     1</i>
   <i type="int" name="OMEGAPAR">    -1</i>
   <i name="LAMBDA">      1.00000000</i>
  </separator>
  <separator name="External order field" >
   <i name="OFIELD_KAPPA">      0.00000000</i>
   <v name="OFIELD_K">      0.00000000      0.00000000      0.00000000</v>
   <i name="OFIELD_Q6_NEAR">      0.00000000</i>
   <i name="OFIELD_Q6_FAR">      0.00000000</i>
   <i name="OFIELD_A">      0.00000000</i>
  </separator>
 </parameters>
 <atominfo>
  <atoms>       4 </atoms>
  <types>       2 </types>
  <array name="atoms" >
   <dimension dim="1">ion</dimension>
   <field type="string">element</field>
   <field type="int">atomtype</field>
   <set>
    <rc><c>Ge</c><c>   1</c></rc>
    <rc><c>Ge</c><c>   1</c></rc>
    <rc><c>S </c><c>   2</c></rc>
    <rc><c>S </c><c>   2</c></rc>
   </set>
  </array>
  <array name="atomtypes" >
   <dimension dim="1">type</dimension>
   <field type="int">atomspertype</field>
   <field type="string">element</field>
   <field>mass</field>
   <field>valence</field>
   <field type="string">pseudopotential</field>
   <set>
    <rc><c>   2</c><c>Ge</c><c>     72.61000000</c><c>     14.00000000</c><c>  PAW_PBE Ge_d 03Jul2007                </c></rc>
    <rc><c>   2</c><c>S </c><c>     32.06600000</c><c>      6.00000000</c><c>  PAW_PBE S 17Jan2003                   </c></rc>
   </set>
  </array>
 </atominfo>
 <structure name="initialpos" >
  <crystal>
   <varray name="basis" >
    <v>       3.67200659       0.00000000       0.00000000 </v>
    <v>       0.00000000       4.40937373       0.00000000 </v>
    <v>       0.00000000       0.00000000      22.67719900 </v>
   </varray>
   <i name="volume">    367.17218446 </i>
   <varray name="rec_basis" >
    <v>       0.27233067       0.00000000       0.00000000 </v>
    <v>       0.00000000       0.22678958       0.00000000 </v>
    <v>       0.00000000       0.00000000       0.04409716 </v>
   </varray>
  </crystal>
  <varray name="positions" >
   <v>       0.25000000       0.36930145       0.11675541 </v>
   <v>       0.75000000       0.86930145       0.00130159 </v>
   <v>       0.25000000       0.49752055       0.01257156 </v>
   <v>       0.75000000       0.99752055       0.10548444 </v>
  </varray>
 </structure>
 <calculation>
  <scstep>
   <time name="dav">    6.27    6.28</time>
   <time name="total">    8.34    8.37</time>
   <energy>
    <i name="alphaZ">     28.27967749 </i>
    <i name="ewald">   7817.65750735 </i>
    <i name="hartreedc"> -12186.17341133 </i>
    <i name="XCdc">    171.71088358 </i>
    <i name="pawpsdc">   3756.50493833 </i>
    <i name="pawaedc">  -4639.53876384 </i>
    <i name="eentropy">      0.00102916 </i>
    <i name="bandstr">   -397.39808752 </i>
    <i name="atom">   5764.15990644 </i>
    <i name="e_fr_energy">    315.20367965 </i>
    <i name="e_wo_entrp">    315.20265050 </i>
    <i name="e_0_energy">    315.20333660 </i>
   </energy>
  </scstep>
  <scstep>
   <time name="dav">    6.51    6.53</time>
   <time name="total">    6.57    6.58</time>
   <energy>
    <i name="e_fr_energy">     49.07502143 </i>
    <i name="e_wo_entrp">     49.07621319 </i>
    <i name="e_0_energy">     49.07541869 </i>
   </energy>
  </scstep>
  <scstep>
   <time name="dav">    7.70    7.72</time>
   <time name="total">    7.76    7.78</time>
   <energy>
    <i name="e_fr_energy">     -3.48115734 </i>
    <i name="e_wo_entrp">     -3.48140656 </i>
    <i name="e_0_energy">     -3.48124041 </i>
   </energy>
  </scstep>
  <scstep>
   <time name="dav">    6.72    6.90</time>
   <time name="total">    6.78    6.96</time>
   <energy>
    <i name="e_fr_energy">     -5.74785619 </i>
    <i name="e_wo_entrp">     -5.74813148 </i>
    <i name="e_0_energy">     -5.74794795 </i>
   </energy>
  </scstep>
  <scstep>
   <time name="dav">    8.05    8.08</time>
   <time name="total">    8.60    8.62</time>
   <energy>
    <i name="e_fr_energy">     -5.84657199 </i>
    <i name="e_wo_entrp">     -5.84683350 </i>
    <i name="e_0_energy">     -5.84665916 </i>
   </energy>
  </scstep>
  <scstep>
   <time name="dav">    6.26    6.27</time>
   <time name="total">    8.39    8.41</time>
   <energy>
    <i name="e_fr_energy">    -12.27873303 </i>
    <i name="e_wo_entrp">    -12.27904896 </i>
    <i name="e_0_energy">    -12.27883834 </i>
   </energy>
  </scstep>
  <scstep>
   <time name="dav">    8.92    8.94</time>
   <time name="total">   11.08   11.11</time>
   <energy>
    <i name="e_fr_energy">  -2207.09725048 </i>
    <i name="e_wo_entrp">  -2207.09690441 </i>
    <i name="e_0_energy">  -2207.09713513 </i>
   </energy>
  </scstep>
  <scstep>
   <time name="dav">    7.13    7.14</time>
   <time name="total">    9.29    9.31</time>
   <energy>
    <i name="e_fr_energy">     -1.12594845 </i>
    <i name="e_wo_entrp">     -1.12593012 </i>
    <i name="e_0_energy">     -1.12594234 </i>
   </energy>
  </scstep>
  <scstep>
   <time name="dav">    7.36    7.37</time>
   <time name="total">    9.59    9.61</time>
   <energy>
    <i name="e_fr_energy">    365.49309521 </i>
    <i name="e_wo_entrp">    365.49459564 </i>
    <i name="e_0_energy">    365.49359535 </i>
   </energy>
  </scstep>
  <scstep>
   <time name="dav">    7.48    7.51</time>
   <time name="total">    9.63    9.67</time>
   <energy>
    <i name="e_fr_energy">      3.97949660 </i>
    <i name="e_wo_entrp">      3.97947564 </i>
    <i name="e_0_energy">      3.97948961 </i>
   </energy>
  </scstep>
  <scstep>
   <time name="dav">    6.77    6.80</time>
   <time name="total">    8.93    9.10</time>
   <energy>
    <i name="e_fr_energy">     35.17787514 </i>
    <i name="e_wo_entrp">     35.17773760 </i>
    <i name="e_0_energy">     35.17782930 </i>
   </energy>
  </scstep>
  <scstep>
   <time name="dav">    6.51    6.53</time>
   <time name="total">    8.64    8.66</time>
   <energy>
    <i name="e_fr_energy">     -9.99564527 </i>
    <i name="e_wo_entrp">     -9.99613924 </i>
    <i name="e_0_energy">     -9.99580993 </i>
   </energy>
  </scstep>
  <scstep>
   <time name="dav">    9.19    9.24</time>
   <time name="total">   11.35   11.40</time>
   <energy>
    <i name="e_fr_energy">  -1142.47356913 </i>
    <i name="e_wo_entrp">  -1142.47261391 </i>
    <i name="e_0_energy">  -1142.47325072 </i>
   </energy>
  </scstep>
  <scstep>
   <time name="dav">    6.35    6.36</time>
   <time name="total">    8.51    8.53</time>
   <energy>
    <i name="e_fr_energy">     61.12354952 </i>
    <i name="e_wo_entrp">     61.12367650 </i>
    <i name="e_0_energy">     61.12359185 </i>
   </energy>
  </scstep>
  <scstep>
   <time name="dav">    7.93    7.94</time>
   <time name="total">   10.06   10.08</time>
   <energy>
    <i name="e_fr_energy">   -343.30439002 </i>
    <i name="e_wo_entrp">   -343.30495312 </i>
    <i name="e_0_energy">   -343.30457772 </i>
   </energy>
  </scstep>
  <scstep>
   <time name="dav">    6.41    6.43</time>
   <time name="total">    8.59    8.61</time>
   <energy>
    <i name="e_fr_energy">    -11.35234104 </i>
    <i name="e_wo_entrp">    -11.35208500 </i>
    <i name="e_0_energy">    -11.35225569 </i>
   </energy>
  </scstep>
  <scstep>
   <time name="dav">    7.43    7.45</time>
   <time name="total">    9.55    9.58</time>
   <energy>
    <i name="e_fr_energy">    -12.13499788 </i>
    <i name="e_wo_entrp">    -12.13566122 </i>
    <i name="e_0_energy">    -12.13521900 </i>
   </energy>
  </scstep>
  <scstep>
   <time name="dav">    6.27    6.28</time>
   <time name="total">    8.39    8.41</time>
   <energy>
    <i name="e_fr_energy">    -12.28991440 </i>
    <i name="e_wo_entrp">    -12.29052549 </i>
    <i name="e_0_energy">    -12.29011810 </i>
   </energy>
  </scstep>
  <scstep>
   <time name="dav">    7.35    7.37</time>
   <time name="total">    9.48    9.50</time>
   <energy>
    <i name="e_fr_energy">    -12.27664507 </i>
    <i name="e_wo_entrp">    -12.27724061 </i>
    <i name="e_0_energy">    -12.27684358 </i>
   </energy>
  </scstep>
  <scstep>
   <time name="dav">    6.22    6.23</time>
   <time name="total">    8.35    8.37</time>
   <energy>
    <i name="e_fr_energy">    -12.25520989 </i>
    <i name="e_wo_entrp">    -12.25580118 </i>
    <i name="e_0_energy">    -12.25540698 </i>
   </energy>
  </scstep>
  <scstep>
   <time name="dav">    6.18    6.19</time>
   <time name="total">    8.31    8.32</time>
   <energy>
    <i name="e_fr_energy">    -12.22956124 </i>
    <i name="e_wo_entrp">    -12.23014758 </i>
    <i name="e_0_energy">    -12.22975669 </i>
   </energy>
  </scstep>
  <scstep>
   <time name="dav">    8.74    8.76</time>
   <time name="total">   10.90   11.51</time>
   <energy>
    <i name="e_fr_energy">    -78.50670433 </i>
    <i name="e_wo_entrp">    -78.50713614 </i>
    <i name="e_0_energy">    -78.50684826 </i>
   </energy>
  </scstep>
  <scstep>
   <time name="dav">    6.27    6.29</time>
   <time name="total">    8.46    8.49</time>
   <energy>
    <i name="e_fr_energy">    -10.77745530 </i>
    <i name="e_wo_entrp">    -10.77760592 </i>
    <i name="e_0_energy">    -10.77750551 </i>
   </energy>
  </scstep>
  <scstep>
   <time name="dav">    6.89    6.91</time>
   <time name="total">    9.04    9.07</time>
   <energy>
    <i name="e_fr_energy">    -11.94950032 </i>
    <i name="e_wo_entrp">    -11.94953797 </i>
    <i name="e_0_energy">    -11.94951287 </i>
   </energy>
  </scstep>
  <scstep>
   <time name="dav">    6.92    6.94</time>
   <time name="total">    9.05    9.08</time>
   <energy>
    <i name="e_fr_energy">    -12.15156850 </i>
    <i name="e_wo_entrp">    -12.15214433 </i>
    <i name="e_0_energy">    -12.15176044 </i>
   </energy>
  </scstep>
  <scstep>
   <time name="dav">    7.04    7.06</time>
   <time name="total">    9.19    9.21</time>
   <energy>
    <i name="e_fr_energy">    -12.61146531 </i>
    <i name="e_wo_entrp">    -12.61269903 </i>
    <i name="e_0_energy">    -12.61187655 </i>
   </energy>
  </scstep>
  <scstep>
   <time name="dav">    6.63    6.64</time>
   <time name="total">    8.76    9.58</time>
   <energy>
    <i name="e_fr_energy">    -12.11331215 </i>
    <i name="e_wo_entrp">    -12.11382005 </i>
    <i name="e_0_energy">    -12.11348145 </i>
   </energy>
  </scstep>
  <scstep>
   <time name="dav">    7.53    7.55</time>
   <time name="total">    9.66   10.17</time>
   <energy>
    <i name="e_fr_energy">   -259.32949912 </i>
    <i name="e_wo_entrp">   -259.33027271 </i>
    <i name="e_0_energy">   -259.32975699 </i>
   </energy>
  </scstep>
  <scstep>
   <time name="dav">    7.03    7.06</time>
   <time name="total">    9.15    9.19</time>
   <energy>
    <i name="e_fr_energy">   -594.30389812 </i>
    <i name="e_wo_entrp">   -594.30405537 </i>
    <i name="e_0_energy">   -594.30395053 </i>
   </energy>
  </scstep>
  <scstep>
   <time name="dav">    6.20    6.22</time>
   <time name="total">    8.45    8.48</time>
   <energy>
    <i name="e_fr_energy">    -10.56468262 </i>
    <i name="e_wo_entrp">    -10.56462713 </i>
    <i name="e_0_energy">    -10.56466412 </i>
   </energy>
  </scstep>
  <scstep>
   <time name="dav">    6.64    6.66</time>
   <time name="total">    8.77    8.80</time>
   <energy>
    <i name="e_fr_energy">    -16.54602910 </i>
    <i name="e_wo_entrp">    -16.54428986 </i>
    <i name="e_0_energy">    -16.54544935 </i>
   </energy>
  </scstep>
  <scstep>
   <time name="dav">    7.59    7.62</time>
   <time name="total">    9.72    9.74</time>
   <energy>
    <i name="e_fr_energy">   -731.83088747 </i>
    <i name="e_wo_entrp">   -731.83119642 </i>
    <i name="e_0_energy">   -731.83099045 </i>
   </energy>
  </scstep>
  <scstep>
   <time name="dav">    6.34    6.36</time>
   <time name="total">    8.49    9.07</time>
   <energy>
    <i name="e_fr_energy">     -9.74194065 </i>
    <i name="e_wo_entrp">     -9.74230323 </i>
    <i name="e_0_energy">     -9.74206151 </i>
   </energy>
  </scstep>
  <scstep>
   <time name="dav">    6.01    6.03</time>
   <time name="total">    8.14    8.17</time>
   <energy>
    <i name="e_fr_energy">    -11.91135894 </i>
    <i name="e_wo_entrp">    -11.91190985 </i>
    <i name="e_0_energy">    -11.91154258 </i>
   </energy>
  </scstep>
  <scstep>
   <time name="dav">    6.62    6.65</time>
   <time name="total">    8.78    8.93</time>
   <energy>
    <i name="e_fr_energy">    -12.17838949 </i>
    <i name="e_wo_entrp">    -12.17895422 </i>
    <i name="e_0_energy">    -12.17857774 </i>
   </energy>
  </scstep>
  <scstep>
   <time name="dav">    6.53    6.58</time>
   <time name="total">    8.67    8.72</time>
   <energy>
    <i name="e_fr_energy">    -12.19204053 </i>
    <i name="e_wo_entrp">    -12.19260432 </i>
    <i name="e_0_energy">    -12.19222846 </i>
   </energy>
  </scstep>
  <scstep>
   <time name="dav">    6.77    6.79</time>
   <time name="total">    8.91    8.94</time>
   <energy>
    <i name="e_fr_energy">    -12.17639951 </i>
    <i name="e_wo_entrp">    -12.17696524 </i>
    <i name="e_0_energy">    -12.17658809 </i>
   </energy>
  </scstep>
  <scstep>
   <time name="dav">    6.51    6.54</time>
   <time name="total">    8.64    9.69</time>
   <energy>
    <i name="e_fr_energy">    -12.17086960 </i>
    <i name="e_wo_entrp">    -12.17143723 </i>
    <i name="e_0_energy">    -12.17105881 </i>
   </energy>
  </scstep>
  <scstep>
   <time name="dav">    6.77    6.79</time>
   <time name="total">    8.89    8.92</time>
   <energy>
    <i name="e_fr_energy">    -40.25559984 </i>
    <i name="e_wo_entrp">    -40.25606135 </i>
    <i name="e_0_energy">    -40.25575367 </i>
   </energy>
  </scstep>
  <scstep>
   <time name="dav">    5.66    5.68</time>
   <time name="total">    7.79    7.82</time>
   <energy>
    <i name="e_fr_energy">    -11.93920743 </i>
    <i name="e_wo_entrp">    -11.93977115 </i>
    <i name="e_0_energy">    -11.93939534 </i>
   </energy>
  </scstep>
  <scstep>
   <time name="dav">    6.10    6.12</time>
   <time name="total">    8.24    9.03</time>
   <energy>
    <i name="e_fr_energy">    -12.12565139 </i>
    <i name="e_wo_entrp">    -12.12621228 </i>
    <i name="e_0_energy">    -12.12583835 </i>
   </energy>
  </scstep>
  <scstep>
   <time name="dav">    6.11    6.12</time>
   <time name="total">    8.24    8.26</time>
   <energy>
    <i name="e_fr_energy">    -12.14132250 </i>
    <i name="e_wo_entrp">    -12.14188221 </i>
    <i name="e_0_energy">    -12.14150907 </i>
   </energy>
  </scstep>
  <scstep>
   <time name="dav">    6.00    6.02</time>
   <time name="total">    8.13    8.16</time>
   <energy>
    <i name="e_fr_energy">    -12.15664892 </i>
    <i name="e_wo_entrp">    -12.15721214 </i>
    <i name="e_0_energy">    -12.15683666 </i>
   </energy>
  </scstep>
  <scstep>
   <time name="dav">    6.26    6.29</time>
   <time name="total">    8.41    8.45</time>
   <energy>
    <i name="e_fr_energy">    -12.19300369 </i>
    <i name="e_wo_entrp">    -12.19357582 </i>
    <i name="e_0_energy">    -12.19319440 </i>
   </energy>
  </scstep>
  <scstep>
   <time name="dav">    6.54    6.56</time>
   <time name="total">    8.67    8.70</time>
   <energy>
    <i name="e_fr_energy">    -12.22033767 </i>
    <i name="e_wo_entrp">    -12.22091426 </i>
    <i name="e_0_energy">    -12.22052986 </i>
   </energy>
  </scstep>
  <scstep>
   <time name="dav">    6.97    6.99</time>
   <time name="total">    9.10    9.35</time>
   <energy>
    <i name="e_fr_energy">    -54.33815587 </i>
    <i name="e_wo_entrp">    -54.33594443 </i>
    <i name="e_0_energy">    -54.33741872 </i>
   </energy>
  </scstep>
  <scstep>
   <time name="dav">    6.08    6.11</time>
   <time name="total">    8.28    8.33</time>
   <energy>
    <i name="e_fr_energy">     -9.45067647 </i>
    <i name="e_wo_entrp">     -9.45040138 </i>
    <i name="e_0_energy">     -9.45058478 </i>
   </energy>
  </scstep>
  <scstep>
   <time name="dav">    6.18    6.20</time>
   <time name="total">    8.31    8.34</time>
   <energy>
    <i name="e_fr_energy">    -11.95560221 </i>
    <i name="e_wo_entrp">    -11.95609681 </i>
    <i name="e_0_energy">    -11.95576708 </i>
   </energy>
  </scstep>
  <scstep>
   <time name="dav">    6.58    6.61</time>
   <time name="total">    8.71    8.74</time>
   <energy>
    <i name="e_fr_energy">    -12.83659331 </i>
    <i name="e_wo_entrp">    -12.83491130 </i>
    <i name="e_0_energy">    -12.83603264 </i>
   </energy>
  </scstep>
  <scstep>
   <time name="dav">    6.42    6.45</time>
   <time name="total">    8.57    8.61</time>
   <energy>
    <i name="e_fr_energy">    -12.15932381 </i>
    <i name="e_wo_entrp">    -12.15988061 </i>
    <i name="e_0_energy">    -12.15950941 </i>
   </energy>
  </scstep>
  <scstep>
   <time name="dav">    6.85    6.87</time>
   <time name="total">    8.98    9.01</time>
   <energy>
    <i name="e_fr_energy">    -51.58597654 </i>
    <i name="e_wo_entrp">    -51.58655901 </i>
    <i name="e_0_energy">    -51.58617070 </i>
   </energy>
  </scstep>
  <scstep>
   <time name="dav">    6.42    6.45</time>
   <time name="total">    8.55    8.58</time>
   <energy>
    <i name="e_fr_energy">    -36.63806925 </i>
    <i name="e_wo_entrp">    -36.63618521 </i>
    <i name="e_0_energy">    -36.63744124 </i>
   </energy>
  </scstep>
  <scstep>
   <time name="dav">    6.09    6.11</time>
   <time name="total">    8.22    8.25</time>
   <energy>
    <i name="e_fr_energy">    -12.10308748 </i>
    <i name="e_wo_entrp">    -12.10368165 </i>
    <i name="e_0_energy">    -12.10328554 </i>
   </energy>
  </scstep>
  <scstep>
   <time name="dav">    6.49    6.50</time>
   <time name="total">    8.62    8.65</time>
   <energy>
    <i name="e_fr_energy">    -12.38107879 </i>
    <i name="e_wo_entrp">    -12.37912378 </i>
    <i name="e_0_energy">    -12.38042712 </i>
   </energy>
  </scstep>
  <scstep>
   <time name="dav">    7.18    7.21</time>
   <time name="total">    9.31    9.96</time>
   <energy>
    <i name="e_fr_energy">   -106.73339075 </i>
    <i name="e_wo_entrp">   -106.73103407 </i>
    <i name="e_0_energy">   -106.73260519 </i>
   </energy>
  </scstep>
  <scstep>
   <time name="dav">    6.37    6.39</time>
   <time name="total">    8.57    8.60</time>
   <energy>
    <i name="e_fr_energy">     -8.95645568 </i>
    <i name="e_wo_entrp">     -8.95644711 </i>
    <i name="e_0_energy">     -8.95645282 </i>
   </energy>
  </scstep>
  <scstep>
   <time name="dav">    6.31    6.33</time>
   <time name="total">    8.44   10.74</time>
   <energy>
    <i name="e_fr_energy">    -12.00909850 </i>
    <i name="e_wo_entrp">    -12.00968920 </i>
    <i name="e_0_energy">    -12.00929540 </i>
   </energy>
  </scstep>
  <scstep>
   <time name="dav">    6.34    6.36</time>
   <time name="total">    8.53    8.58</time>
   <energy>
    <i name="e_fr_energy">    -12.33467967 </i>
    <i name="e_wo_entrp">    -12.33527264 </i>
    <i name="e_0_energy">    -12.33487733 </i>
   </energy>
  </scstep>
  <scstep>
   <time name="dav">    6.31    6.34</time>
   <time name="total">    8.45   10.19</time>
   <energy>
    <i name="e_fr_energy">    -12.35679445 </i>
    <i name="e_wo_entrp">    -12.35738841 </i>
    <i name="e_0_energy">    -12.35699243 </i>
   </energy>
  </scstep>
  <scstep>
   <time name="dav">    6.33    6.35</time>
   <time name="total">    8.03    8.10</time>
   <energy>
    <i name="alphaZ">     28.27967749 </i>
    <i name="ewald">   7817.65750735 </i>
    <i name="hartreedc"> -12193.39148347 </i>
    <i name="XCdc">    169.41080307 </i>
    <i name="pawpsdc">   3898.68877262 </i>
    <i name="pawaedc">  -4777.91426479 </i>
    <i name="eentropy">      0.00059069 </i>
    <i name="bandstr">   -719.24972882 </i>
    <i name="atom">   5764.15990644 </i>
    <i name="e_fr_energy">    -12.35821943 </i>
    <i name="e_wo_entrp">    -12.35881012 </i>
    <i name="e_0_energy">    -12.35841633 </i>
   </energy>
  </scstep>
  <structure>
   <crystal>
    <varray name="basis" >
     <v>       3.67200659       0.00000000       0.00000000 </v>
     <v>       0.00000000       4.40937373       0.00000000 </v>
     <v>       0.00000000       0.00000000      22.67719900 </v>
    </varray>
    <i name="volume">    367.17218446 </i>
    <varray name="rec_basis" >
     <v>       0.27233067       0.00000000       0.00000000 </v>
     <v>       0.00000000       0.22678958       0.00000000 </v>
     <v>       0.00000000       0.00000000       0.04409716 </v>
    </varray>
   </crystal>
   <varray name="positions" >
    <v>       0.25000000       0.36930145       0.11675541 </v>
    <v>       0.75000000       0.86930145       0.00130159 </v>
    <v>       0.25000000       0.49752055       0.01257156 </v>
    <v>       0.75000000       0.99752055       0.10548444 </v>
   </varray>
  </structure>
  <varray name="forces" >
   <v>      -0.00000000       0.00787093       0.00520699 </v>
   <v>      -0.00000000       0.00787093      -0.00520699 </v>
   <v>       0.00000000      -0.00787093       0.00751631 </v>
   <v>       0.00000000      -0.00787093      -0.00751631 </v>
  </varray>
  <varray name="stress" >
   <v>       2.54831386       0.00000000       0.00000000 </v>
   <v>       0.00000000       2.73720974       0.00000000 </v>
   <v>       0.00000000       0.00000000       6.25974702 </v>
  </varray>
  <energy>
   <i name="e_fr_energy">    -12.35821943 </i>
   <i name="e_wo_entrp">    -12.35841633 </i>
   <i name="e_0_energy">      0.00059069 </i>
  </energy>
  <time name="totalsc">  545.55  557.45</time>
  <eigenvalues>
   <array>
    <dimension dim="1">band</dimension>
    <dimension dim="2">kpoint</dimension>
    <dimension dim="3">spin</dimension>
    <field>eigene</field>
    <field>occ</field>
    <set>
     <set comment="spin 1">
      <set comment="kpoint 1">
       <r>  -27.2323    1.0000 </r>
       <r>  -27.2078    1.0000 </r>
       <r>  -27.1993    1.0000 </r>
       <r>  -27.1879    1.0000 </r>
       <r>  -27.1689    1.0000 </r>
       <r>  -27.1542    1.0000 </r>
       <r>  -27.1444    1.0000 </r>
       <r>  -27.1353    1.0000 </r>
       <r>  -27.1300    1.0000 </r>
       <r>  -27.1296    1.0000 </r>
       <r>  -17.2999    1.0000 </r>
       <r>  -15.5486    1.0000 </r>
       <r>  -11.0254    1.0000 </r>
       <r>   -8.3133    1.0000 </r>
       <r>   -7.5853    1.0000 </r>
       <r>   -6.8343    1.0000 </r>
       <r>   -6.2902    1.0000 </r>
       <r>   -4.9718    1.0000 </r>
       <r>   -4.9403    1.0000 </r>
       <r>   -3.5065    0.8179 </r>
       <r>   -1.7332   -0.0000 </r>
       <r>   -0.3920    0.0000 </r>
       <r>    0.0642    0.0000 </r>
       <r>    0.6127    0.0000 </r>
       <r>    0.9314    0.0000 </r>
       <r>    1.0605    0.0000 </r>
       <r>    1.2488    0.0000 </r>
       <r>    2.2551    0.0000 </r>
       <r>    2.3432    0.0000 </r>
       <r>    2.6664    0.0000 </r>
      </set>
      <set comment="kpoint 2">
       <r>  -27.2055    1.0000 </r>
       <r>  -27.2011    1.0000 </r>
       <r>  -27.1995    1.0000 </r>
       <r>  -27.1978    1.0000 </r>
       <r>  -27.1650    1.0000 </r>
       <r>  -27.1555    1.0000 </r>
       <r>  -27.1479    1.0000 </r>
       <r>  -27.1434    1.0000 </r>
       <r>  -27.1351    1.0000 </r>
       <r>  -27.1299    1.0000 </r>
       <r>  -17.2601    1.0000 </r>
       <r>  -15.5271    1.0000 </r>
       <r>  -11.0645    1.0000 </r>
       <r>   -8.4160    1.0000 </r>
       <r>   -7.5480    1.0000 </r>
       <r>   -6.8152    1.0000 </r>
       <r>   -6.3604    1.0000 </r>
       <r>   -5.1180    1.0000 </r>
       <r>   -4.8194    1.0000 </r>
       <r>   -3.5327    0.9504 </r>
       <r>   -1.6893   -0.0000 </r>
       <r>   -0.1780    0.0000 </r>
       <r>    0.0356    0.0000 </r>
       <r>    0.6096    0.0000 </r>
       <r>    0.8376    0.0000 </r>
       <r>    1.1161    0.0000 </r>
       <r>    1.3123    0.0000 </r>
       <r>    2.3089    0.0000 </r>
       <r>    2.3965    0.0000 </r>
       <r>    2.4912    0.0000 </r>
      </set>
      <set comment="kpoint 3">
       <r>  -27.2045    1.0000 </r>
       <r>  -27.2021    1.0000 </r>
       <r>  -27.1983    1.0000 </r>
       <r>  -27.1977    1.0000 </r>
       <r>  -27.1645    1.0000 </r>
       <r>  -27.1557    1.0000 </r>
       <r>  -27.1483    1.0000 </r>
       <r>  -27.1444    1.0000 </r>
       <r>  -27.1344    1.0000 </r>
       <r>  -27.1296    1.0000 </r>
       <r>  -17.1421    1.0000 </r>
       <r>  -15.4690    1.0000 </r>
       <r>  -11.1800    1.0000 </r>
       <r>   -8.7192    1.0000 </r>
       <r>   -7.4381    1.0000 </r>
       <r>   -6.8098    1.0000 </r>
       <r>   -6.4439    1.0000 </r>
       <r>   -5.2697    1.0000 </r>
       <r>   -4.6927    1.0000 </r>
       <r>   -3.6179    1.0265 </r>
       <r>   -1.5572   -0.0000 </r>
       <r>   -0.3251    0.0000 </r>
       <r>    0.2842    0.0000 </r>
       <r>    0.5630    0.0000 </r>
       <r>    0.8957    0.0000 </r>
       <r>    1.2794    0.0000 </r>
       <r>    1.4746    0.0000 </r>
       <r>    2.0463    0.0000 </r>
       <r>    2.3944    0.0000 </r>
       <r>    2.5569    0.0000 </r>
      </set>
      <set comment="kpoint 4">
       <r>  -27.2043    1.0000 </r>
       <r>  -27.2034    1.0000 </r>
       <r>  -27.1976    1.0000 </r>
       <r>  -27.1955    1.0000 </r>
       <r>  -27.1637    1.0000 </r>
       <r>  -27.1560    1.0000 </r>
       <r>  -27.1490    1.0000 </r>
       <r>  -27.1457    1.0000 </r>
       <r>  -27.1333    1.0000 </r>
       <r>  -27.1292    1.0000 </r>
       <r>  -16.9509    1.0000 </r>
       <r>  -15.3950    1.0000 </r>
       <r>  -11.3546    1.0000 </r>
       <r>   -9.1898    1.0000 </r>
       <r>   -7.2632    1.0000 </r>
       <r>   -6.8814    1.0000 </r>
       <r>   -6.3473    1.0000 </r>
       <r>   -5.3594    1.0000 </r>
       <r>   -4.5669    1.0000 </r>
       <r>   -3.7714    1.0001 </r>
       <r>   -1.3382   -0.0000 </r>
       <r>   -0.9021   -0.0000 </r>
       <r>    0.3350    0.0000 </r>
       <r>    0.4168    0.0000 </r>
       <r>    1.0876    0.0000 </r>
       <r>    1.5371    0.0000 </r>
       <r>    1.6849    0.0000 </r>
       <r>    1.7053    0.0000 </r>
       <r>    2.4368    0.0000 </r>
       <r>    2.8123    0.0000 </r>
      </set>
      <set comment="kpoint 5">
       <r>  -27.2055    1.0000 </r>
       <r>  -27.2047    1.0000 </r>
       <r>  -27.1956    1.0000 </r>
       <r>  -27.1932    1.0000 </r>
       <r>  -27.1627    1.0000 </r>
       <r>  -27.1566    1.0000 </r>
       <r>  -27.1497    1.0000 </r>
       <r>  -27.1471    1.0000 </r>
       <r>  -27.1320    1.0000 </r>
       <r>  -27.1287    1.0000 </r>
       <r>  -16.6955    1.0000 </r>
       <r>  -15.3435    1.0000 </r>
       <r>  -11.5346    1.0000 </r>
       <r>   -9.7580    1.0000 </r>
       <r>   -7.0392    1.0000 </r>
       <r>   -6.9018    1.0000 </r>
       <r>   -6.1334    1.0000 </r>
       <r>   -5.3892    1.0000 </r>
       <r>   -4.4709    1.0000 </r>
       <r>   -3.9893    1.0000 </r>
       <r>   -1.3923   -0.0000 </r>
       <r>   -1.0433   -0.0000 </r>
       <r>   -0.1102    0.0000 </r>
       <r>    0.0096    0.0000 </r>
       <r>    1.1517    0.0000 </r>
       <r>    1.3279    0.0000 </r>
       <r>    1.8752    0.0000 </r>
       <r>    1.9705    0.0000 </r>
       <r>    2.4810    0.0000 </r>
       <r>    3.1661    0.0000 </r>
      </set>
      <set comment="kpoint 6">
       <r>  -27.2069    1.0000 </r>
       <r>  -27.2060    1.0000 </r>
       <r>  -27.1932    1.0000 </r>
       <r>  -27.1912    1.0000 </r>
       <r>  -27.1616    1.0000 </r>
       <r>  -27.1573    1.0000 </r>
       <r>  -27.1503    1.0000 </r>
       <r>  -27.1485    1.0000 </r>
       <r>  -27.1307    1.0000 </r>
       <r>  -27.1284    1.0000 </r>
       <r>  -16.3914    1.0000 </r>
       <r>  -15.3664    1.0000 </r>
       <r>  -11.6315    1.0000 </r>
       <r>  -10.3443    1.0000 </r>
       <r>   -6.8166    1.0000 </r>
       <r>   -6.7985    1.0000 </r>
       <r>   -5.8838    1.0000 </r>
       <r>   -5.4113    1.0000 </r>
       <r>   -4.4475    1.0000 </r>
       <r>   -4.2400    1.0000 </r>
       <r>   -1.6486   -0.0000 </r>
       <r>   -0.8014   -0.0000 </r>
       <r>   -0.5244    0.0000 </r>
       <r>   -0.3934    0.0000 </r>
       <r>    0.4877    0.0000 </r>
       <r>    1.2903    0.0000 </r>
       <r>    2.1656    0.0000 </r>
       <r>    2.4037    0.0000 </r>
       <r>    2.7927    0.0000 </r>
       <r>    3.5592    0.0000 </r>
      </set>
      <set comment="kpoint 7">
       <r>  -27.2079    1.0000 </r>
       <r>  -27.2070    1.0000 </r>
       <r>  -27.1913    1.0000 </r>
       <r>  -27.1900    1.0000 </r>
       <r>  -27.1606    1.0000 </r>
       <r>  -27.1582    1.0000 </r>
       <r>  -27.1506    1.0000 </r>
       <r>  -27.1495    1.0000 </r>
       <r>  -27.1297    1.0000 </r>
       <r>  -27.1282    1.0000 </r>
       <r>  -16.0637    1.0000 </r>
       <r>  -15.5038    1.0000 </r>
       <r>  -11.5635    1.0000 </r>
       <r>  -10.8794    1.0000 </r>
       <r>   -6.6683    1.0000 </r>
       <r>   -6.6068    1.0000 </r>
       <r>   -5.6679    1.0000 </r>
       <r>   -5.4674    1.0000 </r>
       <r>   -4.4925    1.0000 </r>
       <r>   -4.4504    1.0000 </r>
       <r>   -1.6438   -0.0000 </r>
       <r>   -1.1167   -0.0000 </r>
       <r>   -0.7127    0.0000 </r>
       <r>   -0.1738    0.0000 </r>
       <r>   -0.0525    0.0000 </r>
       <r>    0.8939    0.0000 </r>
       <r>    2.6414    0.0000 </r>
       <r>    2.9330    0.0000 </r>
       <r>    3.3122    0.0000 </r>
       <r>    3.7829    0.0000 </r>
      </set>
      <set comment="kpoint 8">
       <r>  -27.2082    1.0000 </r>
       <r>  -27.2074    1.0000 </r>
       <r>  -27.1905    1.0000 </r>
       <r>  -27.1897    1.0000 </r>
       <r>  -27.1598    1.0000 </r>
       <r>  -27.1590    1.0000 </r>
       <r>  -27.1506    1.0000 </r>
       <r>  -27.1498    1.0000 </r>
       <r>  -27.1292    1.0000 </r>
       <r>  -27.1283    1.0000 </r>
       <r>  -15.7512    1.0000 </r>
       <r>  -15.7508    1.0000 </r>
       <r>  -11.3035    1.0000 </r>
       <r>  -11.3030    1.0000 </r>
       <r>   -6.5599    1.0000 </r>
       <r>   -6.5598    1.0000 </r>
       <r>   -5.5431    1.0000 </r>
       <r>   -5.5427    1.0000 </r>
       <r>   -4.5301    1.0000 </r>
       <r>   -4.5296    1.0000 </r>
       <r>   -1.4502   -0.0000 </r>
       <r>   -1.4494   -0.0000 </r>
       <r>   -0.5698    0.0000 </r>
       <r>   -0.5691    0.0000 </r>
       <r>    0.3938    0.0000 </r>
       <r>    0.3950    0.0000 </r>
       <r>    3.0600    0.0000 </r>
       <r>    3.2217    0.0000 </r>
       <r>    3.7812    0.0000 </r>
       <r>    3.9886    0.0000 </r>
      </set>
      <set comment="kpoint 9">
       <r>  -27.2059    1.0000 </r>
       <r>  -27.2007    1.0000 </r>
       <r>  -27.2002    1.0000 </r>
       <r>  -27.1977    1.0000 </r>
       <r>  -27.1649    1.0000 </r>
       <r>  -27.1555    1.0000 </r>
       <r>  -27.1476    1.0000 </r>
       <r>  -27.1432    1.0000 </r>
       <r>  -27.1352    1.0000 </r>
       <r>  -27.1301    1.0000 </r>
       <r>  -17.2617    1.0000 </r>
       <r>  -15.5670    1.0000 </r>
       <r>  -11.0953    1.0000 </r>
       <r>   -8.6298    1.0000 </r>
       <r>   -7.3921    1.0000 </r>
       <r>   -6.6881    1.0000 </r>
       <r>   -6.2526    1.0000 </r>
       <r>   -4.9433    1.0000 </r>
       <r>   -4.7900    1.0000 </r>
       <r>   -3.6279    1.0219 </r>
       <r>   -1.6353   -0.0000 </r>
       <r>   -0.3511    0.0000 </r>
       <r>   -0.1046    0.0000 </r>
       <r>    0.6694    0.0000 </r>
       <r>    0.8115    0.0000 </r>
       <r>    1.1242    0.0000 </r>
       <r>    1.3065    0.0000 </r>
       <r>    2.2602    0.0000 </r>
       <r>    2.4002    0.0000 </r>
       <r>    2.4613    0.0000 </r>
      </set>
      <set comment="kpoint 10">
       <r>  -27.2054    1.0000 </r>
       <r>  -27.2011    1.0000 </r>
       <r>  -27.1995    1.0000 </r>
       <r>  -27.1979    1.0000 </r>
       <r>  -27.1647    1.0000 </r>
       <r>  -27.1555    1.0000 </r>
       <r>  -27.1478    1.0000 </r>
       <r>  -27.1435    1.0000 </r>
       <r>  -27.1350    1.0000 </r>
       <r>  -27.1300    1.0000 </r>
       <r>  -17.2222    1.0000 </r>
       <r>  -15.5454    1.0000 </r>
       <r>  -11.1251    1.0000 </r>
       <r>   -8.6932    1.0000 </r>
       <r>   -7.3788    1.0000 </r>
       <r>   -6.7799    1.0000 </r>
       <r>   -6.2213    1.0000 </r>
       <r>   -5.1521    1.0000 </r>
       <r>   -4.6380    1.0000 </r>
       <r>   -3.6460    1.0142 </r>
       <r>   -1.5930   -0.0000 </r>
       <r>   -0.1528    0.0000 </r>
       <r>   -0.1474    0.0000 </r>
       <r>    0.6527    0.0000 </r>
       <r>    0.8065    0.0000 </r>
       <r>    1.1780    0.0000 </r>
       <r>    1.3621    0.0000 </r>
       <r>    2.2316    0.0000 </r>
       <r>    2.2984    0.0000 </r>
       <r>    2.4527    0.0000 </r>
      </set>
      <set comment="kpoint 11">
       <r>  -27.2044    1.0000 </r>
       <r>  -27.2021    1.0000 </r>
       <r>  -27.1984    1.0000 </r>
       <r>  -27.1978    1.0000 </r>
       <r>  -27.1642    1.0000 </r>
       <r>  -27.1557    1.0000 </r>
       <r>  -27.1483    1.0000 </r>
       <r>  -27.1444    1.0000 </r>
       <r>  -27.1343    1.0000 </r>
       <r>  -27.1297    1.0000 </r>
       <r>  -17.1051    1.0000 </r>
       <r>  -15.4867    1.0000 </r>
       <r>  -11.2161    1.0000 </r>
       <r>   -8.9068    1.0000 </r>
       <r>   -7.3249    1.0000 </r>
       <r>   -6.9829    1.0000 </r>
       <r>   -6.1265    1.0000 </r>
       <r>   -5.3907    1.0000 </r>
       <r>   -4.5103    1.0000 </r>
       <r>   -3.7082    1.0016 </r>
       <r>   -1.4681   -0.0000 </r>
       <r>   -0.4606    0.0000 </r>
       <r>    0.2344    0.0000 </r>
       <r>    0.6514    0.0000 </r>
       <r>    0.9394    0.0000 </r>
       <r>    1.3388    0.0000 </r>
       <r>    1.5165    0.0000 </r>
       <r>    1.8304    0.0000 </r>
       <r>    2.3617    0.0000 </r>
       <r>    2.5988    0.0000 </r>
      </set>
      <set comment="kpoint 12">
       <r>  -27.2043    1.0000 </r>
       <r>  -27.2034    1.0000 </r>
       <r>  -27.1976    1.0000 </r>
       <r>  -27.1956    1.0000 </r>
       <r>  -27.1635    1.0000 </r>
       <r>  -27.1561    1.0000 </r>
       <r>  -27.1489    1.0000 </r>
       <r>  -27.1457    1.0000 </r>
       <r>  -27.1332    1.0000 </r>
       <r>  -27.1293    1.0000 </r>
       <r>  -16.9154    1.0000 </r>
       <r>  -15.4113    1.0000 </r>
       <r>  -11.3608    1.0000 </r>
       <r>   -9.2917    1.0000 </r>
       <r>   -7.2061    1.0000 </r>
       <r>   -7.1547    1.0000 </r>
       <r>   -5.9799    1.0000 </r>
       <r>   -5.5226    1.0000 </r>
       <r>   -4.4674    1.0000 </r>
       <r>   -3.8267    1.0000 </r>
       <r>   -1.2644   -0.0000 </r>
       <r>   -0.9092   -0.0000 </r>
       <r>    0.1753    0.0000 </r>
       <r>    0.5169    0.0000 </r>
       <r>    1.1402    0.0000 </r>
       <r>    1.5917    0.0000 </r>
       <r>    1.7394    0.0000 </r>
       <r>    1.7618    0.0000 </r>
       <r>    2.4133    0.0000 </r>
       <r>    2.8410    0.0000 </r>
      </set>
      <set comment="kpoint 13">
       <r>  -27.2056    1.0000 </r>
       <r>  -27.2048    1.0000 </r>
       <r>  -27.1955    1.0000 </r>
       <r>  -27.1932    1.0000 </r>
       <r>  -27.1625    1.0000 </r>
       <r>  -27.1567    1.0000 </r>
       <r>  -27.1496    1.0000 </r>
       <r>  -27.1472    1.0000 </r>
       <r>  -27.1320    1.0000 </r>
       <r>  -27.1288    1.0000 </r>
       <r>  -16.6625    1.0000 </r>
       <r>  -15.3563    1.0000 </r>
       <r>  -11.5171    1.0000 </r>
       <r>   -9.8036    1.0000 </r>
       <r>   -7.1997    1.0000 </r>
       <r>   -7.0213    1.0000 </r>
       <r>   -5.8115    1.0000 </r>
       <r>   -5.5555    1.0000 </r>
       <r>   -4.5143    1.0000 </r>
       <r>   -4.0000    1.0000 </r>
       <r>   -1.2329   -0.0000 </r>
       <r>   -1.0066   -0.0000 </r>
       <r>   -0.3034    0.0000 </r>
       <r>    0.1225    0.0000 </r>
       <r>    1.3546    0.0000 </r>
       <r>    1.5110    0.0000 </r>
       <r>    1.9103    0.0000 </r>
       <r>    2.0154    0.0000 </r>
       <r>    2.5066    0.0000 </r>
       <r>    3.1711    0.0000 </r>
      </set>
      <set comment="kpoint 14">
       <r>  -27.2070    1.0000 </r>
       <r>  -27.2061    1.0000 </r>
       <r>  -27.1931    1.0000 </r>
       <r>  -27.1912    1.0000 </r>
       <r>  -27.1615    1.0000 </r>
       <r>  -27.1574    1.0000 </r>
       <r>  -27.1502    1.0000 </r>
       <r>  -27.1485    1.0000 </r>
       <r>  -27.1307    1.0000 </r>
       <r>  -27.1284    1.0000 </r>
       <r>  -16.3624    1.0000 </r>
       <r>  -15.3723    1.0000 </r>
       <r>  -11.6029    1.0000 </r>
       <r>  -10.3575    1.0000 </r>
       <r>   -7.1002    1.0000 </r>
       <r>   -6.8058    1.0000 </r>
       <r>   -5.6751    1.0000 </r>
       <r>   -5.5838    1.0000 </r>
       <r>   -4.5890    1.0000 </r>
       <r>   -4.1976    1.0000 </r>
       <r>   -1.3704   -0.0000 </r>
       <r>   -1.0122   -0.0000 </r>
       <r>   -0.4536    0.0000 </r>
       <r>   -0.2721    0.0000 </r>
       <r>    0.9650    0.0000 </r>
       <r>    1.2835    0.0000 </r>
       <r>    2.2175    0.0000 </r>
       <r>    2.4478    0.0000 </r>
       <r>    2.8506    0.0000 </r>
       <r>    3.4912    0.0000 </r>
      </set>
      <set comment="kpoint 15">
       <r>  -27.2080    1.0000 </r>
       <r>  -27.2071    1.0000 </r>
       <r>  -27.1913    1.0000 </r>
       <r>  -27.1900    1.0000 </r>
       <r>  -27.1605    1.0000 </r>
       <r>  -27.1583    1.0000 </r>
       <r>  -27.1505    1.0000 </r>
       <r>  -27.1494    1.0000 </r>
       <r>  -27.1297    1.0000 </r>
       <r>  -27.1283    1.0000 </r>
       <r>  -16.0408    1.0000 </r>
       <r>  -15.4997    1.0000 </r>
       <r>  -11.5357    1.0000 </r>
       <r>  -10.8731    1.0000 </r>
       <r>   -6.8973    1.0000 </r>
       <r>   -6.6490    1.0000 </r>
       <r>   -5.6672    1.0000 </r>
       <r>   -5.6366    1.0000 </r>
       <r>   -4.5783    1.0000 </r>
       <r>   -4.3667    1.0000 </r>
       <r>   -1.4398   -0.0000 </r>
       <r>   -1.3315   -0.0000 </r>
       <r>   -0.3823    0.0000 </r>
       <r>   -0.0704    0.0000 </r>
       <r>    0.3774    0.0000 </r>
       <r>    0.8970    0.0000 </r>
       <r>    2.6980    0.0000 </r>
       <r>    2.9557    0.0000 </r>
       <r>    3.3673    0.0000 </r>
       <r>    3.7337    0.0000 </r>
      </set>
      <set comment="kpoint 16">
       <r>  -27.2083    1.0000 </r>
       <r>  -27.2075    1.0000 </r>
       <r>  -27.1905    1.0000 </r>
       <r>  -27.1897    1.0000 </r>
       <r>  -27.1598    1.0000 </r>
       <r>  -27.1590    1.0000 </r>
       <r>  -27.1506    1.0000 </r>
       <r>  -27.1498    1.0000 </r>
       <r>  -27.1292    1.0000 </r>
       <r>  -27.1283    1.0000 </r>
       <r>  -15.7367    1.0000 </r>
       <r>  -15.7363    1.0000 </r>
       <r>  -11.2841    1.0000 </r>
       <r>  -11.2836    1.0000 </r>
       <r>   -6.6909    1.0000 </r>
       <r>   -6.6908    1.0000 </r>
       <r>   -5.6834    1.0000 </r>
       <r>   -5.6831    1.0000 </r>
       <r>   -4.4892    1.0000 </r>
       <r>   -4.4889    1.0000 </r>
       <r>   -1.4749   -0.0000 </r>
       <r>   -1.4743   -0.0000 </r>
       <r>   -0.1197    0.0000 </r>
       <r>   -0.1193    0.0000 </r>
       <r>    0.4132    0.0000 </r>
       <r>    0.4143    0.0000 </r>
       <r>    3.0902    0.0000 </r>
       <r>    3.2357    0.0000 </r>
       <r>    3.8073    0.0000 </r>
       <r>    4.1003    0.0000 </r>
      </set>
      <set comment="kpoint 17">
       <r>  -27.2055    1.0000 </r>
       <r>  -27.2007    1.0000 </r>
       <r>  -27.2004    1.0000 </r>
       <r>  -27.1981    1.0000 </r>
       <r>  -27.1640    1.0000 </r>
       <r>  -27.1558    1.0000 </r>
       <r>  -27.1473    1.0000 </r>
       <r>  -27.1434    1.0000 </r>
       <r>  -27.1350    1.0000 </r>
       <r>  -27.1305    1.0000 </r>
       <r>  -17.1493    1.0000 </r>
       <r>  -15.6294    1.0000 </r>
       <r>  -11.2459    1.0000 </r>
       <r>   -9.2099    1.0000 </r>
       <r>   -7.0995    1.0000 </r>
       <r>   -6.3096    1.0000 </r>
       <r>   -6.1426    1.0000 </r>
       <r>   -4.9602    1.0000 </r>
       <r>   -4.3425    1.0000 </r>
       <r>   -3.9288    1.0000 </r>
       <r>   -1.3840   -0.0000 </r>
       <r>   -0.5416    0.0000 </r>
       <r>   -0.2674    0.0000 </r>
       <r>    0.5373    0.0000 </r>
       <r>    0.8335    0.0000 </r>
       <r>    1.3131    0.0000 </r>
       <r>    1.4652    0.0000 </r>
       <r>    1.9774    0.0000 </r>
       <r>    2.2124    0.0000 </r>
       <r>    2.5776    0.0000 </r>
      </set>
      <set comment="kpoint 18">
       <r>  -27.2050    1.0000 </r>
       <r>  -27.2012    1.0000 </r>
       <r>  -27.1997    1.0000 </r>
       <r>  -27.1983    1.0000 </r>
       <r>  -27.1639    1.0000 </r>
       <r>  -27.1558    1.0000 </r>
       <r>  -27.1475    1.0000 </r>
       <r>  -27.1438    1.0000 </r>
       <r>  -27.1347    1.0000 </r>
       <r>  -27.1304    1.0000 </r>
       <r>  -17.1105    1.0000 </r>
       <r>  -15.6072    1.0000 </r>
       <r>  -11.2564    1.0000 </r>
       <r>   -9.2365    1.0000 </r>
       <r>   -7.0925    1.0000 </r>
       <r>   -6.6658    1.0000 </r>
       <r>   -5.8725    1.0000 </r>
       <r>   -5.1961    1.0000 </r>
       <r>   -4.2501    1.0000 </r>
       <r>   -3.9262    1.0000 </r>
       <r>   -1.3414   -0.0000 </r>
       <r>   -0.5249    0.0000 </r>
       <r>   -0.1262    0.0000 </r>
       <r>    0.5479    0.0000 </r>
       <r>    0.8874    0.0000 </r>
       <r>    1.3642    0.0000 </r>
       <r>    1.5106    0.0000 </r>
       <r>    1.7584    0.0000 </r>
       <r>    2.2295    0.0000 </r>
       <r>    2.6233    0.0000 </r>
      </set>
      <set comment="kpoint 19">
       <r>  -27.2042    1.0000 </r>
       <r>  -27.2022    1.0000 </r>
       <r>  -27.1986    1.0000 </r>
       <r>  -27.1979    1.0000 </r>
       <r>  -27.1634    1.0000 </r>
       <r>  -27.1560    1.0000 </r>
       <r>  -27.1480    1.0000 </r>
       <r>  -27.1446    1.0000 </r>
       <r>  -27.1341    1.0000 </r>
       <r>  -27.1300    1.0000 </r>
       <r>  -16.9960    1.0000 </r>
       <r>  -15.5465    1.0000 </r>
       <r>  -11.2939    1.0000 </r>
       <r>   -9.3388    1.0000 </r>
       <r>   -7.1007    1.0000 </r>
       <r>   -7.0777    1.0000 </r>
       <r>   -5.6315    1.0000 </r>
       <r>   -5.5674    1.0000 </r>
       <r>   -4.2302    1.0000 </r>
       <r>   -3.9282    1.0000 </r>
       <r>   -1.2268   -0.0000 </r>
       <r>   -0.6021    0.0000 </r>
       <r>    0.0263    0.0000 </r>
       <r>    0.7014    0.0000 </r>
       <r>    1.0365    0.0000 </r>
       <r>    1.5127    0.0000 </r>
       <r>    1.5589    0.0000 </r>
       <r>    1.6365    0.0000 </r>
       <r>    2.2720    0.0000 </r>
       <r>    2.7671    0.0000 </r>
      </set>
      <set comment="kpoint 20">
       <r>  -27.2044    1.0000 </r>
       <r>  -27.2036    1.0000 </r>
       <r>  -27.1976    1.0000 </r>
       <r>  -27.1957    1.0000 </r>
       <r>  -27.1628    1.0000 </r>
       <r>  -27.1564    1.0000 </r>
       <r>  -27.1487    1.0000 </r>
       <r>  -27.1458    1.0000 </r>
       <r>  -27.1330    1.0000 </r>
       <r>  -27.1295    1.0000 </r>
       <r>  -16.8112    1.0000 </r>
       <r>  -15.4659    1.0000 </r>
       <r>  -11.3679    1.0000 </r>
       <r>   -9.5678    1.0000 </r>
       <r>   -7.4363    1.0000 </r>
       <r>   -7.0522    1.0000 </r>
       <r>   -5.8068    1.0000 </r>
       <r>   -5.4760    1.0000 </r>
       <r>   -4.3969    1.0000 </r>
       <r>   -3.9522    1.0000 </r>
       <r>   -1.0674   -0.0000 </r>
       <r>   -0.7181    0.0000 </r>
       <r>   -0.2704    0.0000 </r>
       <r>    0.8082    0.0000 </r>
       <r>    1.2445    0.0000 </r>
       <r>    1.7311    0.0000 </r>
       <r>    1.8218    0.0000 </r>
       <r>    1.9074    0.0000 </r>
       <r>    2.3714    0.0000 </r>
       <r>    2.9197    0.0000 </r>
      </set>
      <set comment="kpoint 21">
       <r>  -27.2058    1.0000 </r>
       <r>  -27.2050    1.0000 </r>
       <r>  -27.1954    1.0000 </r>
       <r>  -27.1933    1.0000 </r>
       <r>  -27.1620    1.0000 </r>
       <r>  -27.1569    1.0000 </r>
       <r>  -27.1494    1.0000 </r>
       <r>  -27.1472    1.0000 </r>
       <r>  -27.1318    1.0000 </r>
       <r>  -27.1290    1.0000 </r>
       <r>  -16.5662    1.0000 </r>
       <r>  -15.3994    1.0000 </r>
       <r>  -11.4635    1.0000 </r>
       <r>   -9.9421    1.0000 </r>
       <r>   -7.5893    1.0000 </r>
       <r>   -6.9745    1.0000 </r>
       <r>   -5.9004    1.0000 </r>
       <r>   -5.4211    1.0000 </r>
       <r>   -4.6675    1.0000 </r>
       <r>   -4.0092    1.0000 </r>
       <r>   -1.0230   -0.0000 </r>
       <r>   -0.7272    0.0000 </r>
       <r>   -0.5450    0.0000 </r>
       <r>    0.6082    0.0000 </r>
       <r>    1.3811    0.0000 </r>
       <r>    1.9565    0.0000 </r>
       <r>    2.0329    0.0000 </r>
       <r>    2.2050    0.0000 </r>
       <r>    2.6190    0.0000 </r>
       <r>    3.1583    0.0000 </r>
      </set>
      <set comment="kpoint 22">
       <r>  -27.2073    1.0000 </r>
       <r>  -27.2064    1.0000 </r>
       <r>  -27.1930    1.0000 </r>
       <r>  -27.1912    1.0000 </r>
       <r>  -27.1612    1.0000 </r>
       <r>  -27.1576    1.0000 </r>
       <r>  -27.1500    1.0000 </r>
       <r>  -27.1484    1.0000 </r>
       <r>  -27.1306    1.0000 </r>
       <r>  -27.1285    1.0000 </r>
       <r>  -16.2785    1.0000 </r>
       <r>  -15.3942    1.0000 </r>
       <r>  -11.5200    1.0000 </r>
       <r>  -10.4040    1.0000 </r>
       <r>   -7.5393    1.0000 </r>
       <r>   -6.8306    1.0000 </r>
       <r>   -6.0069    1.0000 </r>
       <r>   -5.4983    1.0000 </r>
       <r>   -4.8331    1.0000 </r>
       <r>   -4.1121    1.0000 </r>
       <r>   -1.2552   -0.0000 </r>
       <r>   -0.6971    0.0000 </r>
       <r>   -0.3320    0.0000 </r>
       <r>    0.3240    0.0000 </r>
       <r>    1.2573    0.0000 </r>
       <r>    1.7170    0.0000 </r>
       <r>    2.3774    0.0000 </r>
       <r>    2.5767    0.0000 </r>
       <r>    3.0252    0.0000 </r>
       <r>    3.3700    0.0000 </r>
      </set>
      <set comment="kpoint 23">
       <r>  -27.2083    1.0000 </r>
       <r>  -27.2075    1.0000 </r>
       <r>  -27.1912    1.0000 </r>
       <r>  -27.1900    1.0000 </r>
       <r>  -27.1603    1.0000 </r>
       <r>  -27.1584    1.0000 </r>
       <r>  -27.1503    1.0000 </r>
       <r>  -27.1492    1.0000 </r>
       <r>  -27.1296    1.0000 </r>
       <r>  -27.1283    1.0000 </r>
       <r>  -15.9753    1.0000 </r>
       <r>  -15.4916    1.0000 </r>
       <r>  -11.4569    1.0000 </r>
       <r>  -10.8610    1.0000 </r>
       <r>   -7.3208    1.0000 </r>
       <r>   -6.7677    1.0000 </r>
       <r>   -6.1232    1.0000 </r>
       <r>   -5.7032    1.0000 </r>
       <r>   -4.7508    1.0000 </r>
       <r>   -4.2863    1.0000 </r>
       <r>   -1.3286   -0.0000 </r>
       <r>   -0.8704   -0.0000 </r>
       <r>    0.0414    0.0000 </r>
       <r>    0.3621    0.0000 </r>
       <r>    0.9175    0.0000 </r>
       <r>    1.2368    0.0000 </r>
       <r>    2.8530    0.0000 </r>
       <r>    2.9907    0.0000 </r>
       <r>    3.5275    0.0000 </r>
       <r>    3.6740    0.0000 </r>
      </set>
      <set comment="kpoint 24">
       <r>  -27.2087    1.0000 </r>
       <r>  -27.2078    1.0000 </r>
       <r>  -27.1905    1.0000 </r>
       <r>  -27.1896    1.0000 </r>
       <r>  -27.1597    1.0000 </r>
       <r>  -27.1590    1.0000 </r>
       <r>  -27.1503    1.0000 </r>
       <r>  -27.1496    1.0000 </r>
       <r>  -27.1292    1.0000 </r>
       <r>  -27.1283    1.0000 </r>
       <r>  -15.6972    1.0000 </r>
       <r>  -15.6968    1.0000 </r>
       <r>  -11.2317    1.0000 </r>
       <r>  -11.2311    1.0000 </r>
       <r>   -7.0071    1.0000 </r>
       <r>   -7.0069    1.0000 </r>
       <r>   -5.9663    1.0000 </r>
       <r>   -5.9662    1.0000 </r>
       <r>   -4.5245    1.0000 </r>
       <r>   -4.5242    1.0000 </r>
       <r>   -1.1635   -0.0000 </r>
       <r>   -1.1631   -0.0000 </r>
       <r>    0.4584    0.0000 </r>
       <r>    0.4593    0.0000 </r>
       <r>    0.7579    0.0000 </r>
       <r>    0.7581    0.0000 </r>
       <r>    3.1531    0.0000 </r>
       <r>    3.2464    0.0000 </r>
       <r>    3.8740    0.0000 </r>
       <r>    4.1305    0.0000 </r>
      </set>
      <set comment="kpoint 25">
       <r>  -27.2048    1.0000 </r>
       <r>  -27.2008    1.0000 </r>
       <r>  -27.2006    1.0000 </r>
       <r>  -27.1985    1.0000 </r>
       <r>  -27.1627    1.0000 </r>
       <r>  -27.1562    1.0000 </r>
       <r>  -27.1469    1.0000 </r>
       <r>  -27.1438    1.0000 </r>
       <r>  -27.1345    1.0000 </r>
       <r>  -27.1310    1.0000 </r>
       <r>  -16.9695    1.0000 </r>
       <r>  -15.7516    1.0000 </r>
       <r>  -11.3611    1.0000 </r>
       <r>   -9.8208    1.0000 </r>
       <r>   -6.7937    1.0000 </r>
       <r>   -5.9701    1.0000 </r>
       <r>   -5.8404    1.0000 </r>
       <r>   -5.0119    1.0000 </r>
       <r>   -4.2786    1.0000 </r>
       <r>   -3.8365    1.0000 </r>
       <r>   -1.0513   -0.0000 </r>
       <r>   -1.0404   -0.0000 </r>
       <r>   -0.2509    0.0000 </r>
       <r>    0.2697    0.0000 </r>
       <r>    1.0553    0.0000 </r>
       <r>    1.4028    0.0000 </r>
       <r>    1.5819    0.0000 </r>
       <r>    1.6629    0.0000 </r>
       <r>    2.1248    0.0000 </r>
       <r>    2.9023    0.0000 </r>
      </set>
      <set comment="kpoint 26">
       <r>  -27.2044    1.0000 </r>
       <r>  -27.2013    1.0000 </r>
       <r>  -27.2000    1.0000 </r>
       <r>  -27.1987    1.0000 </r>
       <r>  -27.1626    1.0000 </r>
       <r>  -27.1563    1.0000 </r>
       <r>  -27.1471    1.0000 </r>
       <r>  -27.1441    1.0000 </r>
       <r>  -27.1343    1.0000 </r>
       <r>  -27.1309    1.0000 </r>
       <r>  -16.9322    1.0000 </r>
       <r>  -15.7280    1.0000 </r>
       <r>  -11.3545    1.0000 </r>
       <r>   -9.8246    1.0000 </r>
       <r>   -6.7838    1.0000 </r>
       <r>   -6.4760    1.0000 </r>
       <r>   -5.4766    1.0000 </r>
       <r>   -5.2668    1.0000 </r>
       <r>   -4.2319    1.0000 </r>
       <r>   -3.8554    1.0000 </r>
       <r>   -0.9890   -0.0000 </r>
       <r>   -0.8731   -0.0000 </r>
       <r>   -0.2260    0.0000 </r>
       <r>    0.2996    0.0000 </r>
       <r>    1.0938    0.0000 </r>
       <r>    1.3252    0.0000 </r>
       <r>    1.6188    0.0000 </r>
       <r>    1.7090    0.0000 </r>
       <r>    2.1670    0.0000 </r>
       <r>    2.9018    0.0000 </r>
      </set>
      <set comment="kpoint 27">
       <r>  -27.2038    1.0000 </r>
       <r>  -27.2024    1.0000 </r>
       <r>  -27.1989    1.0000 </r>
       <r>  -27.1981    1.0000 </r>
       <r>  -27.1622    1.0000 </r>
       <r>  -27.1565    1.0000 </r>
       <r>  -27.1476    1.0000 </r>
       <r>  -27.1449    1.0000 </r>
       <r>  -27.1337    1.0000 </r>
       <r>  -27.1305    1.0000 </r>
       <r>  -16.8222    1.0000 </r>
       <r>  -15.6624    1.0000 </r>
       <r>  -11.3423    1.0000 </r>
       <r>   -9.8521    1.0000 </r>
       <r>   -7.0614    1.0000 </r>
       <r>   -6.7792    1.0000 </r>
       <r>   -5.7398    1.0000 </r>
       <r>   -5.2540    1.0000 </r>
       <r>   -4.1235    1.0000 </r>
       <r>   -4.0517    1.0000 </r>
       <r>   -0.8851   -0.0000 </r>
       <r>   -0.5112    0.0000 </r>
       <r>   -0.3219    0.0000 </r>
       <r>    0.4868    0.0000 </r>
       <r>    1.1812    0.0000 </r>
       <r>    1.4559    0.0000 </r>
       <r>    1.7218    0.0000 </r>
       <r>    1.8514    0.0000 </r>
       <r>    2.2947    0.0000 </r>
       <r>    2.9875    0.0000 </r>
      </set>
      <set comment="kpoint 28">
       <r>  -27.2045    1.0000 </r>
       <r>  -27.2037    1.0000 </r>
       <r>  -27.1976    1.0000 </r>
       <r>  -27.1959    1.0000 </r>
       <r>  -27.1618    1.0000 </r>
       <r>  -27.1568    1.0000 </r>
       <r>  -27.1484    1.0000 </r>
       <r>  -27.1461    1.0000 </r>
       <r>  -27.1327    1.0000 </r>
       <r>  -27.1299    1.0000 </r>
       <r>  -16.6458    1.0000 </r>
       <r>  -15.5711    1.0000 </r>
       <r>  -11.3433    1.0000 </r>
       <r>   -9.9499    1.0000 </r>
       <r>   -7.5438    1.0000 </r>
       <r>   -6.8507    1.0000 </r>
       <r>   -6.0695    1.0000 </r>
       <r>   -5.2107    1.0000 </r>
       <r>   -4.4297    1.0000 </r>
       <r>   -4.0314    1.0000 </r>
       <r>   -0.9020   -0.0000 </r>
       <r>   -0.4562    0.0000 </r>
       <r>   -0.2203    0.0000 </r>
       <r>    0.8558    0.0000 </r>
       <r>    1.2323    0.0000 </r>
       <r>    1.8915    0.0000 </r>
       <r>    1.9528    0.0000 </r>
       <r>    2.1215    0.0000 </r>
       <r>    2.5250    0.0000 </r>
       <r>    3.0538    0.0000 </r>
      </set>
      <set comment="kpoint 29">
       <r>  -27.2061    1.0000 </r>
       <r>  -27.2053    1.0000 </r>
       <r>  -27.1952    1.0000 </r>
       <r>  -27.1934    1.0000 </r>
       <r>  -27.1612    1.0000 </r>
       <r>  -27.1573    1.0000 </r>
       <r>  -27.1491    1.0000 </r>
       <r>  -27.1473    1.0000 </r>
       <r>  -27.1315    1.0000 </r>
       <r>  -27.1293    1.0000 </r>
       <r>  -16.4147    1.0000 </r>
       <r>  -15.4838    1.0000 </r>
       <r>  -11.3688    1.0000 </r>
       <r>  -10.1680    1.0000 </r>
       <r>   -7.8250    1.0000 </r>
       <r>   -6.9500    1.0000 </r>
       <r>   -6.2218    1.0000 </r>
       <r>   -5.3237    1.0000 </r>
       <r>   -4.8093    1.0000 </r>
       <r>   -4.0285    1.0000 </r>
       <r>   -1.0791   -0.0000 </r>
       <r>   -0.3171    0.0000 </r>
       <r>    0.0053    0.0000 </r>
       <r>    0.9785    0.0000 </r>
       <r>    1.2955    0.0000 </r>
       <r>    2.1741    0.0000 </r>
       <r>    2.2621    0.0000 </r>
       <r>    2.5482    0.0000 </r>
       <r>    2.8683    0.0000 </r>
       <r>    3.1927    0.0000 </r>
      </set>
      <set comment="kpoint 30">
       <r>  -27.2077    1.0000 </r>
       <r>  -27.2068    1.0000 </r>
       <r>  -27.1928    1.0000 </r>
       <r>  -27.1913    1.0000 </r>
       <r>  -27.1606    1.0000 </r>
       <r>  -27.1579    1.0000 </r>
       <r>  -27.1496    1.0000 </r>
       <r>  -27.1483    1.0000 </r>
       <r>  -27.1304    1.0000 </r>
       <r>  -27.1287    1.0000 </r>
       <r>  -16.1485    1.0000 </r>
       <r>  -15.4429    1.0000 </r>
       <r>  -11.3909    1.0000 </r>
       <r>  -10.4986    1.0000 </r>
       <r>   -7.8631    1.0000 </r>
       <r>   -6.9086    1.0000 </r>
       <r>   -6.4649    1.0000 </r>
       <r>   -5.5796    1.0000 </r>
       <r>   -4.9614    1.0000 </r>
       <r>   -4.1442    1.0000 </r>
       <r>   -1.0969   -0.0000 </r>
       <r>   -0.0703    0.0000 </r>
       <r>    0.0881    0.0000 </r>
       <r>    0.8515    0.0000 </r>
       <r>    1.3377    0.0000 </r>
       <r>    2.2162    0.0000 </r>
       <r>    2.6644    0.0000 </r>
       <r>    2.8519    0.0000 </r>
       <r>    3.3067    0.0000 </r>
       <r>    3.4289    0.0000 </r>
      </set>
      <set comment="kpoint 31">
       <r>  -27.2088    1.0000 </r>
       <r>  -27.2079    1.0000 </r>
       <r>  -27.1911    1.0000 </r>
       <r>  -27.1900    1.0000 </r>
       <r>  -27.1601    1.0000 </r>
       <r>  -27.1586    1.0000 </r>
       <r>  -27.1499    1.0000 </r>
       <r>  -27.1491    1.0000 </r>
       <r>  -27.1295    1.0000 </r>
       <r>  -27.1284    1.0000 </r>
       <r>  -15.8775    1.0000 </r>
       <r>  -15.4909    1.0000 </r>
       <r>  -11.3406    1.0000 </r>
       <r>  -10.8613    1.0000 </r>
       <r>   -7.6804    1.0000 </r>
       <r>   -6.9228    1.0000 </r>
       <r>   -6.6409    1.0000 </r>
       <r>   -5.9362    1.0000 </r>
       <r>   -4.8486    1.0000 </r>
       <r>   -4.3555    1.0000 </r>
       <r>   -0.9036   -0.0000 </r>
       <r>   -0.1696    0.0000 </r>
       <r>    0.2307    0.0000 </r>
       <r>    0.8056    0.0000 </r>
       <r>    1.3702    0.0000 </r>
       <r>    2.0157    0.0000 </r>
       <r>    3.0251    0.0000 </r>
       <r>    3.1598    0.0000 </r>
       <r>    3.7332    0.0000 </r>
       <r>    3.8238    0.0000 </r>
      </set>
      <set comment="kpoint 32">
       <r>  -27.2092    1.0000 </r>
       <r>  -27.2083    1.0000 </r>
       <r>  -27.1904    1.0000 </r>
       <r>  -27.1895    1.0000 </r>
       <r>  -27.1597    1.0000 </r>
       <r>  -27.1590    1.0000 </r>
       <r>  -27.1500    1.0000 </r>
       <r>  -27.1494    1.0000 </r>
       <r>  -27.1292    1.0000 </r>
       <r>  -27.1283    1.0000 </r>
       <r>  -15.6437    1.0000 </r>
       <r>  -15.6433    1.0000 </r>
       <r>  -11.1628    1.0000 </r>
       <r>  -11.1623    1.0000 </r>
       <r>   -7.3369    1.0000 </r>
       <r>   -7.3367    1.0000 </r>
       <r>   -6.3206    1.0000 </r>
       <r>   -6.3206    1.0000 </r>
       <r>   -4.6121    1.0000 </r>
       <r>   -4.6120    1.0000 </r>
       <r>   -0.5627    0.0000 </r>
       <r>   -0.5625    0.0000 </r>
       <r>    0.5563    0.0000 </r>
       <r>    0.5567    0.0000 </r>
       <r>    1.6676    0.0000 </r>
       <r>    1.6677    0.0000 </r>
       <r>    3.2270    0.0000 </r>
       <r>    3.2685    0.0000 </r>
       <r>    4.0340    0.0000 </r>
       <r>    4.3128    0.0000 </r>
      </set>
      <set comment="kpoint 33">
       <r>  -27.2041    1.0000 </r>
       <r>  -27.2014    1.0000 </r>
       <r>  -27.2005    1.0000 </r>
       <r>  -27.1990    1.0000 </r>
       <r>  -27.1611    1.0000 </r>
       <r>  -27.1570    1.0000 </r>
       <r>  -27.1464    1.0000 </r>
       <r>  -27.1443    1.0000 </r>
       <r>  -27.1340    1.0000 </r>
       <r>  -27.1317    1.0000 </r>
       <r>  -16.7351    1.0000 </r>
       <r>  -15.9425    1.0000 </r>
       <r>  -11.3509    1.0000 </r>
       <r>  -10.3821    1.0000 </r>
       <r>   -6.4540    1.0000 </r>
       <r>   -5.7525    1.0000 </r>
       <r>   -5.5462    1.0000 </r>
       <r>   -5.1210    1.0000 </r>
       <r>   -4.4312    1.0000 </r>
       <r>   -3.5405    0.9764 </r>
       <r>   -1.3686   -0.0000 </r>
       <r>   -0.7062    0.0000 </r>
       <r>   -0.3418    0.0000 </r>
       <r>    0.1326    0.0000 </r>
       <r>    0.8648    0.0000 </r>
       <r>    0.9722    0.0000 </r>
       <r>    1.7598    0.0000 </r>
       <r>    2.0681    0.0000 </r>
       <r>    2.3843    0.0000 </r>
       <r>    3.2561    0.0000 </r>
      </set>
      <set comment="kpoint 34">
       <r>  -27.2037    1.0000 </r>
       <r>  -27.2016    1.0000 </r>
       <r>  -27.2002    1.0000 </r>
       <r>  -27.1991    1.0000 </r>
       <r>  -27.1611    1.0000 </r>
       <r>  -27.1571    1.0000 </r>
       <r>  -27.1466    1.0000 </r>
       <r>  -27.1446    1.0000 </r>
       <r>  -27.1338    1.0000 </r>
       <r>  -27.1315    1.0000 </r>
       <r>  -16.6999    1.0000 </r>
       <r>  -15.9165    1.0000 </r>
       <r>  -11.3343    1.0000 </r>
       <r>  -10.3720    1.0000 </r>
       <r>   -6.4440    1.0000 </r>
       <r>   -6.2308    1.0000 </r>
       <r>   -5.4032    1.0000 </r>
       <r>   -5.3481    1.0000 </r>
       <r>   -4.2777    1.0000 </r>
       <r>   -3.6337    1.0193 </r>
       <r>   -1.0671   -0.0000 </r>
       <r>   -0.6159    0.0000 </r>
       <r>   -0.4526    0.0000 </r>
       <r>    0.1589    0.0000 </r>
       <r>    0.9784    0.0000 </r>
       <r>    1.0105    0.0000 </r>
       <r>    1.8142    0.0000 </r>
       <r>    2.1181    0.0000 </r>
       <r>    2.4413    0.0000 </r>
       <r>    3.2283    0.0000 </r>
      </set>
      <set comment="kpoint 35">
       <r>  -27.2035    1.0000 </r>
       <r>  -27.2025    1.0000 </r>
       <r>  -27.1992    1.0000 </r>
       <r>  -27.1984    1.0000 </r>
       <r>  -27.1609    1.0000 </r>
       <r>  -27.1572    1.0000 </r>
       <r>  -27.1472    1.0000 </r>
       <r>  -27.1453    1.0000 </r>
       <r>  -27.1332    1.0000 </r>
       <r>  -27.1311    1.0000 </r>
       <r>  -16.5966    1.0000 </r>
       <r>  -15.8427    1.0000 </r>
       <r>  -11.2918    1.0000 </r>
       <r>  -10.3535    1.0000 </r>
       <r>   -6.8910    1.0000 </r>
       <r>   -6.4663    1.0000 </r>
       <r>   -5.9344    1.0000 </r>
       <r>   -5.2771    1.0000 </r>
       <r>   -4.0705    1.0000 </r>
       <r>   -3.9615    1.0000 </r>
       <r>   -0.6966    0.0000 </r>
       <r>   -0.3843    0.0000 </r>
       <r>   -0.3389    0.0000 </r>
       <r>    0.2473    0.0000 </r>
       <r>    1.0872    0.0000 </r>
       <r>    1.3510    0.0000 </r>
       <r>    1.9730    0.0000 </r>
       <r>    2.2570    0.0000 </r>
       <r>    2.6061    0.0000 </r>
       <r>    3.2682    0.0000 </r>
      </set>
      <set comment="kpoint 36">
       <r>  -27.2047    1.0000 </r>
       <r>  -27.2039    1.0000 </r>
       <r>  -27.1974    1.0000 </r>
       <r>  -27.1961    1.0000 </r>
       <r>  -27.1606    1.0000 </r>
       <r>  -27.1574    1.0000 </r>
       <r>  -27.1479    1.0000 </r>
       <r>  -27.1463    1.0000 </r>
       <r>  -27.1323    1.0000 </r>
       <r>  -27.1304    1.0000 </r>
       <r>  -16.4326    1.0000 </r>
       <r>  -15.7347    1.0000 </r>
       <r>  -11.2452    1.0000 </r>
       <r>  -10.3627    1.0000 </r>
       <r>   -7.4758    1.0000 </r>
       <r>   -6.7688    1.0000 </r>
       <r>   -6.1762    1.0000 </r>
[...]
       <r>    -3.5173     0.5694    19.9908 </r>
       <r>    -3.3995     0.0884    20.0012 </r>
       <r>    -3.2817    -0.0102    20.0000 </r>
       <r>    -3.1639    -0.0004    20.0000 </r>
       <r>    -3.0462    -0.0000    20.0000 </r>
       <r>    -2.9284    -0.0000    20.0000 </r>
       <r>    -2.8106    -0.0000    20.0000 </r>
       <r>    -2.6929     0.0000    20.0000 </r>
       <r>    -2.5751    -0.0000    20.0000 </r>
       <r>    -2.4573    -0.0000    20.0000 </r>
       <r>    -2.3395    -0.0000    20.0000 </r>
       <r>    -2.2218    -0.0000    20.0000 </r>
       <r>    -2.1040    -0.0000    20.0000 </r>
       <r>    -1.9862    -0.0001    20.0000 </r>
       <r>    -1.8684    -0.0045    19.9995 </r>
       <r>    -1.7507     0.0155    20.0013 </r>
       <r>    -1.6329     0.3677    20.0446 </r>
       <r>    -1.5151     0.4948    20.1029 </r>
       <r>    -1.3974     0.8778    20.2062 </r>
       <r>    -1.2796     1.3334    20.3633 </r>
       <r>    -1.1618     0.9314    20.4730 </r>
       <r>    -1.0440     1.3588    20.6330 </r>
       <r>    -0.9263     1.5692    20.8178 </r>
       <r>    -0.8085     1.6713    21.0147 </r>
       <r>    -0.6907     1.1877    21.1545 </r>
       <r>    -0.5729     1.3815    21.3172 </r>
       <r>    -0.4552     1.7467    21.5229 </r>
       <r>    -0.3374     1.9380    21.7512 </r>
       <r>    -0.2196     1.9166    21.9769 </r>
       <r>    -0.1019     2.1173    22.2263 </r>
       <r>     0.0159     2.0621    22.4691 </r>
       <r>     0.1337     1.6702    22.6658 </r>
       <r>     0.2515     1.9932    22.9006 </r>
       <r>     0.3692     2.0445    23.1414 </r>
       <r>     0.4870     1.6261    23.3329 </r>
       <r>     0.6048     2.1804    23.5896 </r>
       <r>     0.7225     1.5184    23.7685 </r>
       <r>     0.8403     1.7064    23.9694 </r>
       <r>     0.9581     2.5443    24.2691 </r>
       <r>     1.0759     2.3302    24.5435 </r>
       <r>     1.1936     2.0552    24.7856 </r>
       <r>     1.3114     2.3501    25.0623 </r>
       <r>     1.4292     2.4045    25.3455 </r>
       <r>     1.5470     1.3101    25.4998 </r>
       <r>     1.6647     1.4094    25.6658 </r>
       <r>     1.7825     2.0169    25.9033 </r>
       <r>     1.9003     1.8822    26.1250 </r>
       <r>     2.0180     1.6730    26.3220 </r>
       <r>     2.1358     1.2008    26.4634 </r>
       <r>     2.2536     2.4979    26.7576 </r>
       <r>     2.3714     2.8226    27.0901 </r>
       <r>     2.4891     2.7742    27.4168 </r>
       <r>     2.6069     2.6846    27.7330 </r>
       <r>     2.7247     1.6706    27.9297 </r>
       <r>     2.8424     1.3371    28.0872 </r>
       <r>     2.9602     2.3301    28.3616 </r>
       <r>     3.0780     1.9310    28.5890 </r>
       <r>     3.1958     1.8590    28.8080 </r>
       <r>     3.3135     2.1334    29.0592 </r>
       <r>     3.4313     1.7551    29.2659 </r>
       <r>     3.5491     1.2087    29.4083 </r>
       <r>     3.6669     0.6300    29.4825 </r>
       <r>     3.7846     1.5221    29.6617 </r>
       <r>     3.9024     0.8465    29.7614 </r>
       <r>     4.0202     0.2723    29.7935 </r>
       <r>     4.1379     0.4051    29.8412 </r>
       <r>     4.2557     0.3199    29.8789 </r>
       <r>     4.3735     0.4258    29.9290 </r>
       <r>     4.4913     0.1288    29.9442 </r>
       <r>     4.6090     0.0709    29.9525 </r>
       <r>     4.7268     0.3526    29.9941 </r>
       <r>     4.8446     0.0582    30.0009 </r>
       <r>     4.9624    -0.0077    30.0000 </r>
       <r>     5.0801    -0.0001    30.0000 </r>
       <r>     5.1979    -0.0000    30.0000 </r>
       <r>     5.3157    -0.0000    30.0000 </r>
       <r>     5.4334     0.0000    30.0000 </r>
       <r>     5.5512     0.0000    30.0000 </r>
       <r>     5.6690     0.0000    30.0000 </r>
       <r>     5.7868     0.0000    30.0000 </r>
       <r>     5.9045     0.0000    30.0000 </r>
       <r>     6.0223     0.0000    30.0000 </r>
       <r>     6.1401     0.0000    30.0000 </r>
       <r>     6.2578     0.0000    30.0000 </r>
       <r>     6.3756     0.0000    30.0000 </r>
       <r>     6.4934     0.0000    30.0000 </r>
      </set>
      <set comment="spin 2">
       <r>   -28.8383     0.0000     0.0000 </r>
       <r>   -28.7205     0.0000     0.0000 </r>
       <r>   -28.6028     0.0000     0.0000 </r>
       <r>   -28.4850     0.0000     0.0000 </r>
       <r>   -28.3672     0.0000     0.0000 </r>
       <r>   -28.2495     0.0000     0.0000 </r>
       <r>   -28.1317     0.0000     0.0000 </r>
       <r>   -28.0139    -0.0000    -0.0000 </r>
       <r>   -27.8961    -0.0000    -0.0000 </r>
       <r>   -27.7784    -0.0000    -0.0000 </r>
       <r>   -27.6606    -0.0000    -0.0000 </r>
       <r>   -27.5428    -0.0003    -0.0000 </r>
       <r>   -27.4251    -0.1342    -0.0158 </r>
       <r>   -27.3073    -2.0423    -0.2564 </r>
       <r>   -27.1895    31.4227     3.4444 </r>
       <r>   -27.0717    55.2693     9.9536 </r>
       <r>   -26.9540     0.9758    10.0685 </r>
       <r>   -26.8362    -0.5781    10.0004 </r>
       <r>   -26.7184    -0.0033    10.0000 </r>
       <r>   -26.6006    -0.0000    10.0000 </r>
       <r>   -26.4829    -0.0000    10.0000 </r>
       <r>   -26.3651     0.0000    10.0000 </r>
       <r>   -26.2473     0.0000    10.0000 </r>
       <r>   -26.1296     0.0000    10.0000 </r>
       <r>   -26.0118     0.0000    10.0000 </r>
       <r>   -25.8940     0.0000    10.0000 </r>
       <r>   -25.7762     0.0000    10.0000 </r>
       <r>   -25.6585     0.0000    10.0000 </r>
       <r>   -25.5407     0.0000    10.0000 </r>
       <r>   -25.4229     0.0000    10.0000 </r>
       <r>   -25.3052     0.0000    10.0000 </r>
       <r>   -25.1874     0.0000    10.0000 </r>
       <r>   -25.0696     0.0000    10.0000 </r>
       <r>   -24.9518     0.0000    10.0000 </r>
       <r>   -24.8341     0.0000    10.0000 </r>
       <r>   -24.7163     0.0000    10.0000 </r>
       <r>   -24.5985     0.0000    10.0000 </r>
       <r>   -24.4807     0.0000    10.0000 </r>
       <r>   -24.3630     0.0000    10.0000 </r>
       <r>   -24.2452     0.0000    10.0000 </r>
       <r>   -24.1274     0.0000    10.0000 </r>
       <r>   -24.0097     0.0000    10.0000 </r>
       <r>   -23.8919     0.0000    10.0000 </r>
       <r>   -23.7741     0.0000    10.0000 </r>
       <r>   -23.6563     0.0000    10.0000 </r>
       <r>   -23.5386     0.0000    10.0000 </r>
       <r>   -23.4208     0.0000    10.0000 </r>
       <r>   -23.3030     0.0000    10.0000 </r>
       <r>   -23.1852     0.0000    10.0000 </r>
       <r>   -23.0675     0.0000    10.0000 </r>
       <r>   -22.9497     0.0000    10.0000 </r>
       <r>   -22.8319     0.0000    10.0000 </r>
       <r>   -22.7142     0.0000    10.0000 </r>
       <r>   -22.5964     0.0000    10.0000 </r>
       <r>   -22.4786     0.0000    10.0000 </r>
       <r>   -22.3608     0.0000    10.0000 </r>
       <r>   -22.2431     0.0000    10.0000 </r>
       <r>   -22.1253     0.0000    10.0000 </r>
       <r>   -22.0075     0.0000    10.0000 </r>
       <r>   -21.8898     0.0000    10.0000 </r>
       <r>   -21.7720     0.0000    10.0000 </r>
       <r>   -21.6542     0.0000    10.0000 </r>
       <r>   -21.5364     0.0000    10.0000 </r>
       <r>   -21.4187     0.0000    10.0000 </r>
       <r>   -21.3009     0.0000    10.0000 </r>
       <r>   -21.1831     0.0000    10.0000 </r>
       <r>   -21.0653     0.0000    10.0000 </r>
       <r>   -20.9476     0.0000    10.0000 </r>
       <r>   -20.8298     0.0000    10.0000 </r>
       <r>   -20.7120     0.0000    10.0000 </r>
       <r>   -20.5943     0.0000    10.0000 </r>
       <r>   -20.4765     0.0000    10.0000 </r>
       <r>   -20.3587     0.0000    10.0000 </r>
       <r>   -20.2409     0.0000    10.0000 </r>
       <r>   -20.1232     0.0000    10.0000 </r>
       <r>   -20.0054     0.0000    10.0000 </r>
       <r>   -19.8876     0.0000    10.0000 </r>
       <r>   -19.7698     0.0000    10.0000 </r>
       <r>   -19.6521     0.0000    10.0000 </r>
       <r>   -19.5343     0.0000    10.0000 </r>
       <r>   -19.4165     0.0000    10.0000 </r>
       <r>   -19.2988     0.0000    10.0000 </r>
       <r>   -19.1810     0.0000    10.0000 </r>
       <r>   -19.0632     0.0000    10.0000 </r>
       <r>   -18.9454     0.0000    10.0000 </r>
       <r>   -18.8277     0.0000    10.0000 </r>
       <r>   -18.7099     0.0000    10.0000 </r>
       <r>   -18.5921     0.0000    10.0000 </r>
       <r>   -18.4744     0.0000    10.0000 </r>
       <r>   -18.3566     0.0000    10.0000 </r>
       <r>   -18.2388     0.0000    10.0000 </r>
       <r>   -18.1210    -0.0000    10.0000 </r>
       <r>   -18.0033    -0.0000    10.0000 </r>
       <r>   -17.8855    -0.0000    10.0000 </r>
       <r>   -17.7677    -0.0000    10.0000 </r>
       <r>   -17.6499    -0.0000    10.0000 </r>
       <r>   -17.5322    -0.0004    10.0000 </r>
       <r>   -17.4144    -0.0114     9.9986 </r>
       <r>   -17.2966     0.1147    10.0121 </r>
       <r>   -17.1789     0.4793    10.0686 </r>
       <r>   -17.0611     0.5547    10.1339 </r>
       <r>   -16.9433     0.5738    10.2015 </r>
       <r>   -16.8255     0.5638    10.2679 </r>
       <r>   -16.7078     0.5533    10.3330 </r>
       <r>   -16.5900     0.7497    10.4213 </r>
       <r>   -16.4722     0.4546    10.4749 </r>
       <r>   -16.3544     0.8874    10.5794 </r>
       <r>   -16.2367     0.6177    10.6521 </r>
       <r>   -16.1189     0.8129    10.7479 </r>
       <r>   -16.0011     0.9129    10.8554 </r>
       <r>   -15.8834     0.9988    10.9730 </r>
       <r>   -15.7656     1.1218    11.1051 </r>
       <r>   -15.6478     1.7252    11.3083 </r>
       <r>   -15.5300     2.5949    11.6139 </r>
       <r>   -15.4123     2.3982    11.8964 </r>
       <r>   -15.2945     0.9143    12.0040 </r>
       <r>   -15.1767    -0.0267    12.0009 </r>
       <r>   -15.0590    -0.0076    12.0000 </r>
       <r>   -14.9412    -0.0000    12.0000 </r>
       <r>   -14.8234    -0.0000    12.0000 </r>
       <r>   -14.7056    -0.0000    12.0000 </r>
       <r>   -14.5879     0.0000    12.0000 </r>
       <r>   -14.4701     0.0000    12.0000 </r>
       <r>   -14.3523     0.0000    12.0000 </r>
       <r>   -14.2345     0.0000    12.0000 </r>
       <r>   -14.1168     0.0000    12.0000 </r>
       <r>   -13.9990     0.0000    12.0000 </r>
       <r>   -13.8812     0.0000    12.0000 </r>
       <r>   -13.7635     0.0000    12.0000 </r>
       <r>   -13.6457     0.0000    12.0000 </r>
       <r>   -13.5279     0.0000    12.0000 </r>
       <r>   -13.4101     0.0000    12.0000 </r>
       <r>   -13.2924     0.0000    12.0000 </r>
       <r>   -13.1746     0.0000    12.0000 </r>
       <r>   -13.0568     0.0000    12.0000 </r>
       <r>   -12.9391     0.0000    12.0000 </r>
       <r>   -12.8213     0.0000    12.0000 </r>
       <r>   -12.7035     0.0000    12.0000 </r>
       <r>   -12.5857     0.0000    12.0000 </r>
       <r>   -12.4680    -0.0000    12.0000 </r>
       <r>   -12.3502    -0.0000    12.0000 </r>
       <r>   -12.2324    -0.0000    12.0000 </r>
       <r>   -12.1146    -0.0000    12.0000 </r>
       <r>   -11.9969    -0.0000    12.0000 </r>
       <r>   -11.8791    -0.0004    12.0000 </r>
       <r>   -11.7613    -0.0139    11.9983 </r>
       <r>   -11.6436     0.0991    12.0100 </r>
       <r>   -11.5258     0.7916    12.1032 </r>
       <r>   -11.4080     1.1644    12.2404 </r>
       <r>   -11.2902     2.5352    12.5389 </r>
       <r>   -11.1725     2.1924    12.7971 </r>
       <r>   -11.0547     1.7130    12.9989 </r>
       <r>   -10.9369     0.9494    13.1107 </r>
       <r>   -10.8191     1.3139    13.2654 </r>
       <r>   -10.7014     0.8042    13.3601 </r>
       <r>   -10.5836     0.1868    13.3821 </r>
       <r>   -10.4658     0.3180    13.4196 </r>
       <r>   -10.3481     1.1245    13.5520 </r>
       <r>   -10.2303     0.3947    13.5985 </r>
       <r>   -10.1125     0.1343    13.6143 </r>
       <r>    -9.9947     0.0985    13.6259 </r>
       <r>    -9.8770     0.5174    13.6868 </r>
       <r>    -9.7592     0.6624    13.7649 </r>
       <r>    -9.6414     0.0944    13.7760 </r>
       <r>    -9.5237     0.1667    13.7956 </r>
       <r>    -9.4059     0.0391    13.8002 </r>
       <r>    -9.2881     0.3790    13.8448 </r>
       <r>    -9.1703     0.4566    13.8986 </r>
       <r>    -9.0526     0.0338    13.9026 </r>
       <r>    -8.9348     0.0797    13.9120 </r>
       <r>    -8.8170     0.1373    13.9282 </r>
       <r>    -8.6992     0.2193    13.9540 </r>
       <r>    -8.5815     0.2245    13.9804 </r>
       <r>    -8.4637     0.0254    13.9834 </r>
       <r>    -8.3459     0.1035    13.9956 </r>
       <r>    -8.2282     0.0386    14.0002 </r>
       <r>    -8.1104    -0.0121    13.9987 </r>
       <r>    -7.9926     0.1182    14.0126 </r>
       <r>    -7.8748     0.7576    14.1019 </r>
       <r>    -7.7571     0.7560    14.1909 </r>
       <r>    -7.6393     0.7402    14.2781 </r>
       <r>    -7.5215     1.2379    14.4239 </r>
       <r>    -7.4037     0.9588    14.5368 </r>
       <r>    -7.2860     1.0529    14.6608 </r>
       <r>    -7.1682     1.1853    14.8004 </r>
       <r>    -7.0504     1.6883    14.9992 </r>
       <r>    -6.9327     1.9508    15.2290 </r>
       <r>    -6.8149     2.3450    15.5052 </r>
       <r>    -6.6971     1.8912    15.7279 </r>
       <r>    -6.5793     1.4019    15.8930 </r>
       <r>    -6.4616     0.9718    16.0074 </r>
       <r>    -6.3438     1.1311    16.1407 </r>
       <r>    -6.2260     1.2407    16.2868 </r>
       <r>    -6.1083     1.4531    16.4579 </r>
       <r>    -5.9905     1.4038    16.6233 </r>
       <r>    -5.8727     1.6949    16.8229 </r>
       <r>    -5.7549     1.1994    16.9641 </r>
       <r>    -5.6372     1.7318    17.1681 </r>
       <r>    -5.5194     2.3542    17.4453 </r>
       <r>    -5.4016     1.5554    17.6285 </r>
       <r>    -5.2838     1.4152    17.7952 </r>
       <r>    -5.1661     1.0486    17.9187 </r>
       <r>    -5.0483     0.3553    17.9605 </r>
       <r>    -4.9305     0.6188    18.0334 </r>
       <r>    -4.8128     1.2276    18.1780 </r>
       <r>    -4.6950     1.3910    18.3418 </r>
       <r>    -4.5772     1.7685    18.5501 </r>
       <r>    -4.4594     2.0863    18.7958 </r>
       <r>    -4.3417     1.7252    18.9990 </r>
       <r>    -4.2239     1.5413    19.1805 </r>
       <r>    -4.1061     1.4681    19.3534 </r>
       <r>    -3.9883     1.8854    19.5754 </r>
       <r>    -3.8706     1.6288    19.7673 </r>
       <r>    -3.7528     0.5709    19.8345 </r>
       <r>    -3.6350     0.8577    19.9355 </r>
       <r>    -3.5173     0.4953    19.9939 </r>
       <r>    -3.3995     0.0612    20.0011 </r>
       <r>    -3.2817    -0.0088    20.0000 </r>
       <r>    -3.1639    -0.0002    20.0000 </r>
       <r>    -3.0462    -0.0000    20.0000 </r>
       <r>    -2.9284    -0.0000    20.0000 </r>
       <r>    -2.8106    -0.0000    20.0000 </r>
       <r>    -2.6929     0.0000    20.0000 </r>
       <r>    -2.5751    -0.0000    20.0000 </r>
       <r>    -2.4573    -0.0000    20.0000 </r>
       <r>    -2.3395    -0.0000    20.0000 </r>
       <r>    -2.2218    -0.0000    20.0000 </r>
       <r>    -2.1040    -0.0000    20.0000 </r>
       <r>    -1.9862    -0.0000    20.0000 </r>
       <r>    -1.8684    -0.0036    19.9996 </r>
       <r>    -1.7507     0.0043    20.0001 </r>
       <r>    -1.6329     0.3352    20.0396 </r>
       <r>    -1.5151     0.5154    20.1002 </r>
       <r>    -1.3974     0.9181    20.2084 </r>
       <r>    -1.2796     1.2914    20.3605 </r>
       <r>    -1.1618     0.9775    20.4756 </r>
       <r>    -1.0440     1.2988    20.6286 </r>
       <r>    -0.9263     1.6190    20.8192 </r>
       <r>    -0.8085     1.7031    21.0198 </r>
       <r>    -0.6907     1.2139    21.1628 </r>
       <r>    -0.5729     1.4081    21.3286 </r>
       <r>    -0.4552     1.6886    21.5275 </r>
       <r>    -0.3374     1.9890    21.7617 </r>
       <r>    -0.2196     1.9284    21.9888 </r>
       <r>    -0.1019     2.0827    22.2341 </r>
       <r>     0.0159     2.0296    22.4732 </r>
       <r>     0.1337     1.7476    22.6790 </r>
       <r>     0.2515     2.0081    22.9155 </r>
       <r>     0.3692     1.9935    23.1503 </r>
       <r>     0.4870     1.6341    23.3427 </r>
       <r>     0.6048     1.9444    23.5717 </r>
       <r>     0.7225     1.3464    23.7303 </r>
       <r>     0.8403     1.5954    23.9182 </r>
       <r>     0.9581     1.9685    24.1500 </r>
       <r>     1.0759     1.7377    24.3547 </r>
       <r>     1.1936     1.4290    24.5230 </r>
       <r>     1.3114     2.2646    24.7897 </r>
       <r>     1.4292     2.2661    25.0566 </r>
       <r>     1.5470     1.1979    25.1976 </r>
       <r>     1.6647     0.5621    25.2638 </r>
       <r>     1.7825     1.0202    25.3840 </r>
       <r>     1.9003     1.4617    25.5561 </r>
       <r>     2.0180     1.5708    25.7411 </r>
       <r>     2.1358     1.4052    25.9066 </r>
       <r>     2.2536     1.3641    26.0673 </r>
       <r>     2.3714     1.9911    26.3018 </r>
       <r>     2.4891     1.7511    26.5080 </r>
       <r>     2.6069     2.0002    26.7436 </r>
       <r>     2.7247     1.9251    26.9703 </r>
       <r>     2.8424     2.1926    27.2285 </r>
       <r>     2.9602     2.0435    27.4692 </r>
       <r>     3.0780     2.1627    27.7239 </r>
       <r>     3.1958     1.9691    27.9558 </r>
       <r>     3.3135     2.5455    28.2556 </r>
       <r>     3.4313     2.1828    28.5127 </r>
       <r>     3.5491     3.0299    28.8695 </r>
       <r>     3.6669     1.8784    29.0907 </r>
       <r>     3.7846     1.0533    29.2148 </r>
       <r>     3.9024     1.2224    29.3588 </r>
       <r>     4.0202     0.9122    29.4662 </r>
       <r>     4.1379     0.7124    29.5501 </r>
       <r>     4.2557     0.5934    29.6200 </r>
       <r>     4.3735     0.6994    29.7024 </r>
       <r>     4.4913     0.6832    29.7828 </r>
       <r>     4.6090     0.3939    29.8292 </r>
       <r>     4.7268     0.4160    29.8782 </r>
       <r>     4.8446     0.6549    29.9553 </r>
       <r>     4.9624     0.3919    30.0015 </r>
       <r>     5.0801    -0.0094    30.0004 </r>
       <r>     5.1979    -0.0031    30.0000 </r>
       <r>     5.3157    -0.0000    30.0000 </r>
       <r>     5.4334    -0.0000    30.0000 </r>
       <r>     5.5512    -0.0000    30.0000 </r>
       <r>     5.6690     0.0000    30.0000 </r>
       <r>     5.7868     0.0000    30.0000 </r>
       <r>     5.9045     0.0000    30.0000 </r>
       <r>     6.0223     0.0000    30.0000 </r>
       <r>     6.1401     0.0000    30.0000 </r>
       <r>     6.2578     0.0000    30.0000 </r>
       <r>     6.3756     0.0000    30.0000 </r>
       <r>     6.4934     0.0000    30.0000 </r>
      </set>
     </set>
    </array>
   </total>
  </dos>
 </calculation>
 <structure name="finalpos" >
  <crystal>
   <varray name="basis" >
    <v>       3.67200659       0.00000000       0.00000000 </v>
    <v>       0.00000000       4.40937373       0.00000000 </v>
    <v>       0.00000000       0.00000000      22.67719900 </v>
   </varray>
   <i name="volume">    367.17218446 </i>
   <varray name="rec_basis" >
    <v>       0.27233067       0.00000000       0.00000000 </v>
    <v>       0.00000000       0.22678958       0.00000000 </v>
    <v>       0.00000000       0.00000000       0.04409716 </v>
   </varray>
  </crystal>
  <varray name="positions" >
   <v>       0.25000000       0.36930145       0.11675541 </v>
   <v>       0.75000000       0.86930145       0.00130159 </v>
   <v>       0.25000000       0.49752055       0.01257156 </v>
   <v>       0.75000000       0.99752055       0.10548444 </v>
  </varray>
 </structure>
</modeling>
