<?xml version="1.0" encoding="ISO-8859-1"?>
<modeling>
 <generator>
  <i name="program" type="string">vasp </i>
  <i name="version" type="string">5.4.1  </i>
  <i name="subversion" type="string">24Jun15 (build Mar  6 2017 20:45:23) complex                          parallel </i>
  <i name="platform" type="string">IFC91_ompi </i>
  <i name="date" type="string">2017 10 28 </i>
  <i name="time" type="string">18:56:46 </i>
 </generator>
 <incar>
  <i type="string" name="PREC">accurate</i>
  <i type="string" name="ALGO"> Normal</i>
  <i type="int" name="ISPIN">     1</i>
  <i type="int" name="ICHARG">     1</i>
  <i type="int" name="NELM">   100</i>
  <i type="int" name="IBRION">    -1</i>
  <i name="EDIFF">      0.00000001</i>
  <i type="int" name="NSW">     0</i>
  <i type="int" name="ISIF">     3</i>
  <i name="ENCUT">    300.00000000</i>
  <i type="int" name="NGX">    32</i>
  <i type="int" name="NGY">    32</i>
  <i type="int" name="NGZ">    32</i>
  <i type="int" name="NGXF">    64</i>
  <i type="int" name="NGYF">    64</i>
  <i type="int" name="NGZF">    64</i>
  <i type="logical" name="LREAL"> F  </i>
  <i type="int" name="ISMEAR">     2</i>
  <i name="SIGMA">      0.20000000</i>
  <i type="int" name="NWRITE">     3</i>
  <i type="logical" name="LWAVE"> F  </i>
  <i type="logical" name="LCHARG"> F  </i>
  <i type="logical" name="LVTOT"> T  </i>
  <i type="logical" name="LVHAR"> F  </i>
  <v type="int" name="KPOINT_BSE">    -1     0     0     0</v>
  <i type="int" name="NELM">   100</i>
 </incar>
 <kpoints>
  <generation param="Gamma">
   <v type="int" name="divisions">       5        5        5 </v>
   <v name="usershift">      0.00000000       0.00000000       0.00000000 </v>
   <v name="genvec1">      0.20000000       0.00000000       0.00000000 </v>
   <v name="genvec2">      0.00000000       0.20000000       0.00000000 </v>
   <v name="genvec3">      0.00000000       0.00000000       0.20000000 </v>
   <v name="shift">      0.00000000       0.00000000       0.00000000 </v>
  </generation>
  <varray name="kpointlist" >
   <v>       0.00000000       0.00000000       0.00000000 </v>
   <v>       0.20000000       0.00000000       0.00000000 </v>
   <v>       0.40000000       0.00000000       0.00000000 </v>
   <v>       0.00000000       0.20000000       0.00000000 </v>
   <v>       0.20000000       0.20000000       0.00000000 </v>
   <v>       0.40000000       0.20000000       0.00000000 </v>
   <v>      -0.40000000       0.20000000       0.00000000 </v>
   <v>      -0.20000000       0.20000000       0.00000000 </v>
   <v>       0.00000000       0.40000000       0.00000000 </v>
   <v>       0.20000000       0.40000000       0.00000000 </v>
   <v>       0.40000000       0.40000000       0.00000000 </v>
   <v>      -0.40000000       0.40000000       0.00000000 </v>
   <v>      -0.20000000       0.40000000       0.00000000 </v>
   <v>       0.00000000       0.20000000       0.20000000 </v>
   <v>       0.40000000       0.20000000       0.20000000 </v>
   <v>      -0.40000000       0.20000000       0.20000000 </v>
   <v>      -0.20000000       0.20000000       0.20000000 </v>
   <v>       0.00000000       0.40000000       0.20000000 </v>
   <v>      -0.40000000       0.40000000       0.20000000 </v>
   <v>      -0.20000000       0.40000000       0.20000000 </v>
   <v>       0.00000000      -0.40000000       0.20000000 </v>
   <v>       0.40000000      -0.40000000       0.20000000 </v>
   <v>      -0.20000000      -0.40000000       0.20000000 </v>
   <v>       0.00000000      -0.20000000       0.20000000 </v>
   <v>       0.00000000       0.40000000       0.40000000 </v>
   <v>      -0.20000000       0.40000000       0.40000000 </v>
   <v>       0.00000000      -0.40000000       0.40000000 </v>
  </varray>
  <varray name="weights" >
   <v>       0.00800000 </v>
   <v>       0.03200000 </v>
   <v>       0.03200000 </v>
   <v>       0.03200000 </v>
   <v>       0.03200000 </v>
   <v>       0.06400000 </v>
   <v>       0.06400000 </v>
   <v>       0.06400000 </v>
   <v>       0.03200000 </v>
   <v>       0.06400000 </v>
   <v>       0.03200000 </v>
   <v>       0.06400000 </v>
   <v>       0.06400000 </v>
   <v>       0.01600000 </v>
   <v>       0.01600000 </v>
   <v>       0.03200000 </v>
   <v>       0.03200000 </v>
   <v>       0.03200000 </v>
   <v>       0.03200000 </v>
   <v>       0.06400000 </v>
   <v>       0.03200000 </v>
   <v>       0.06400000 </v>
   <v>       0.03200000 </v>
   <v>       0.01600000 </v>
   <v>       0.01600000 </v>
   <v>       0.01600000 </v>
   <v>       0.01600000 </v>
  </varray>
 </kpoints>
 <parameters>
  <separator name="general" >
   <i type="string" name="SYSTEM">unknown system</i>
   <i type="logical" name="LCOMPAT"> F  </i>
  </separator>
  <separator name="electronic" >
   <i type="string" name="PREC">accura</i>
   <i name="ENMAX">    300.00000000</i>
   <i name="ENAUG">    291.05200000</i>
   <i name="EDIFF">      0.00000001</i>
   <i type="int" name="IALGO">    38</i>
   <i type="int" name="IWAVPR">    10</i>
   <i type="int" name="NBANDS">    17</i>
   <i name="NELECT">     24.00000000</i>
   <i type="int" name="TURBO">     0</i>
   <i type="int" name="IRESTART">     0</i>
   <i type="int" name="NREBOOT">     0</i>
   <i type="int" name="NMIN">     0</i>
   <i name="EREF">      0.00000000</i>
   <separator name="electronic smearing" >
    <i type="int" name="ISMEAR">     2</i>
    <i name="SIGMA">      0.20000000</i>
    <i name="KSPACING">      0.50000000</i>
    <i type="logical" name="KGAMMA"> T  </i>
   </separator>
   <separator name="electronic projectors" >
    <i type="logical" name="LREAL"> F  </i>
    <v name="ROPT">      0.00000000</v>
    <i type="int" name="LMAXPAW">  -100</i>
    <i type="int" name="LMAXMIX">     2</i>
    <i type="logical" name="NLSPLINE"> F  </i>
   </separator>
   <separator name="electronic startup" >
    <i type="int" name="ISTART">     0</i>
    <i type="int" name="ICHARG">     1</i>
    <i type="int" name="INIWAV">     1</i>
   </separator>
   <separator name="electronic spin" >
    <i type="int" name="ISPIN">     1</i>
    <i type="logical" name="LNONCOLLINEAR"> F  </i>
    <v name="MAGMOM">      1.00000000      1.00000000      1.00000000      1.00000000      1.00000000      1.00000000      1.00000000      1.00000000</v>
    <i name="NUPDOWN">     -1.00000000</i>
    <i type="logical" name="LSORBIT"> F  </i>
    <v name="SAXIS">      0.00000000      0.00000000      1.00000000</v>
    <i type="logical" name="LSPIRAL"> F  </i>
    <v name="QSPIRAL">      0.00000000      0.00000000      0.00000000</v>
    <i type="logical" name="LZEROZ"> F  </i>
   </separator>
   <separator name="electronic exchange-correlation" >
    <i type="logical" name="LASPH"> F  </i>
    <i type="logical" name="LMETAGGA"> F  </i>
   </separator>
   <separator name="electronic convergence" >
    <i type="int" name="NELM">   100</i>
    <i type="int" name="NELMDL">    -5</i>
    <i type="int" name="NELMIN">     2</i>
    <i name="ENINI">    300.00000000</i>
    <separator name="electronic convergence detail" >
     <i type="logical" name="LDIAG"> T  </i>
     <i type="logical" name="LSUBROT"> F  </i>
     <i name="WEIMIN">      0.00000000</i>
     <i name="EBREAK">      0.00000000</i>
     <i name="DEPER">      0.30000000</i>
     <i type="int" name="NRMM">     4</i>
     <i name="TIME">      0.40000000</i>
    </separator>
   </separator>
   <separator name="electronic mixer" >
    <i name="AMIX">      0.40000000</i>
    <i name="BMIX">      1.00000000</i>
    <i name="AMIN">      0.10000000</i>
    <i name="AMIX_MAG">      1.60000000</i>
    <i name="BMIX_MAG">      1.00000000</i>
    <separator name="electronic mixer details" >
     <i type="int" name="IMIX">     4</i>
     <i type="logical" name="MIXFIRST"> F  </i>
     <i type="int" name="MAXMIX">   -45</i>
     <i name="WC">    100.00000000</i>
     <i type="int" name="INIMIX">     1</i>
     <i type="int" name="MIXPRE">     1</i>
     <i type="int" name="MREMOVE">     5</i>
    </separator>
   </separator>
   <separator name="electronic dipolcorrection" >
    <i type="logical" name="LDIPOL"> F  </i>
    <i type="logical" name="LMONO"> F  </i>
    <i type="int" name="IDIPOL">     0</i>
    <i name="EPSILON">      1.00000000</i>
    <v name="DIPOL">   -100.00000000   -100.00000000   -100.00000000</v>
    <i name="EFIELD">      0.00000000</i>
   </separator>
  </separator>
  <separator name="grids" >
   <i type="int" name="NGX">    32</i>
   <i type="int" name="NGY">    32</i>
   <i type="int" name="NGZ">    32</i>
   <i type="int" name="NGXF">    64</i>
   <i type="int" name="NGYF">    64</i>
   <i type="int" name="NGZF">    64</i>
   <i type="logical" name="ADDGRID"> F  </i>
  </separator>
  <separator name="ionic" >
   <i type="int" name="NSW">     0</i>
   <i type="int" name="IBRION">    -1</i>
   <i type="int" name="ISIF">     3</i>
   <i name="PSTRESS">      0.00000000</i>
   <i name="EDIFFG">      0.00000010</i>
   <i type="int" name="NFREE">     0</i>
   <i name="POTIM">      0.50000000</i>
   <i name="SMASS">     -3.00000000</i>
   <i name="SCALEE">      1.00000000</i>
  </separator>
  <separator name="ionic md" >
   <i name="TEBEG">      0.00010000</i>
   <i name="TEEND">      0.00010000</i>
   <i type="int" name="NBLOCK">     1</i>
   <i type="int" name="KBLOCK">     1</i>
   <i type="int" name="NPACO">   256</i>
   <i name="APACO">     16.00000000</i>
  </separator>
  <separator name="symmetry" >
   <i type="int" name="ISYM">     2</i>
   <i name="SYMPREC">      0.00001000</i>
  </separator>
  <separator name="dos" >
   <i type="logical" name="LORBIT"> T  </i>
   <v name="RWIGS">     -1.00000000</v>
   <i type="int" name="NEDOS">   301</i>
   <i name="EMIN">     10.00000000</i>
   <i name="EMAX">    -10.00000000</i>
   <i name="EFERMI">      0.00000000</i>
  </separator>
  <separator name="writing" >
   <i type="int" name="NWRITE">     3</i>
   <i type="logical" name="LWAVE"> F  </i>
   <i type="logical" name="LCHARG"> F  </i>
   <i type="logical" name="LPARD"> F  </i>
   <i type="logical" name="LVTOT"> T  </i>
   <i type="logical" name="LVHAR"> F  </i>
   <i type="logical" name="LELF"> F  </i>
   <i type="logical" name="LOPTICS"> F  </i>
   <v name="STM">      0.00000000      0.00000000      0.00000000      0.00000000      0.00000000      0.00000000      0.00000000</v>
  </separator>
  <separator name="performance" >
   <i type="int" name="NPAR">     1</i>
   <i type="int" name="NSIM">     4</i>
   <i type="int" name="NBLK">    -1</i>
   <i type="logical" name="LPLANE"> T  </i>
   <i type="logical" name="LSCALAPACK"> T  </i>
   <i type="logical" name="LSCAAWARE"> F  </i>
   <i type="logical" name="LSCALU"> F  </i>
   <i type="logical" name="LASYNC"> F  </i>
   <i type="logical" name="LORBITALREAL"> F  </i>
  </separator>
  <separator name="miscellaneous" >
   <i type="int" name="IDIOT">     3</i>
   <i type="logical" name="LMUSIC"> F  </i>
   <v name="POMASS">     26.98100000</v>
   <v name="DARWINR">      0.00000000</v>
   <v name="DARWINV">      1.00000000</v>
   <i type="logical" name="LCORR"> T  </i>
  </separator>
  <i type="logical" name="GGA_COMPAT"> T  </i>
  <i type="logical" name="LBERRY"> F  </i>
  <i type="int" name="ICORELEVEL">     0</i>
  <i type="logical" name="LDAU"> F  </i>
  <i type="int" name="I_CONSTRAINED_M">     0</i>
  <separator name="electronic exchange-correlation" >
   <i type="string" name="GGA">--</i>
   <i type="int" name="VOSKOWN">     0</i>
   <i type="logical" name="LHFCALC"> F  </i>
   <i type="string" name="PRECFOCK"></i>
   <i type="logical" name="LSYMGRAD"> F  </i>
   <i type="logical" name="LHFONE"> F  </i>
   <i type="logical" name="LRHFCALC"> F  </i>
   <i type="logical" name="LTHOMAS"> F  </i>
   <i type="logical" name="LMODELHF"> F  </i>
   <i name="ENCUT4O">     -1.00000000</i>
   <i type="int" name="EXXOEP">     0</i>
   <i type="int" name="FOURORBIT">     0</i>
   <i name="AEXX">      0.00000000</i>
   <i name="HFALPHA">      0.00000000</i>
   <i name="MCALPHA">      0.00000000</i>
   <i name="ALDAX">      1.00000000</i>
   <i name="AGGAX">      1.00000000</i>
   <i name="ALDAC">      1.00000000</i>
   <i name="AGGAC">      1.00000000</i>
   <i type="int" name="NKREDX">     1</i>
   <i type="int" name="NKREDY">     1</i>
   <i type="int" name="NKREDZ">     1</i>
   <i type="logical" name="SHIFTRED"> F  </i>
   <i type="logical" name="ODDONLY"> F  </i>
   <i type="logical" name="EVENONLY"> F  </i>
   <i type="int" name="LMAXFOCK">     0</i>
   <i type="int" name="NMAXFOCKAE">     0</i>
   <i type="logical" name="LFOCKAEDFT"> F  </i>
   <i name="HFSCREEN">      0.00000000</i>
   <i name="HFSCREENC">      0.00000000</i>
   <i type="int" name="NBANDSGWLOW">     0</i>
  </separator>
  <separator name="vdW DFT" >
   <i type="logical" name="LUSE_VDW"> F  </i>
   <i name="Zab_VDW">     -0.84910000</i>
   <i name="PARAM1">      0.12340000</i>
   <i name="PARAM2">      1.00000000</i>
   <i name="PARAM3">      0.00000000</i>
  </separator>
  <separator name="model GW" >
   <i type="int" name="MODEL_GW">     0</i>
   <i name="MODEL_EPS0">      9.87629822</i>
   <i name="MODEL_ALPHA">      1.00000000</i>
  </separator>
  <separator name="linear response parameters" >
   <i type="logical" name="LEPSILON"> F  </i>
   <i type="logical" name="LRPA"> F  </i>
   <i type="logical" name="LNABLA"> F  </i>
   <i type="logical" name="LVEL"> F  </i>
   <i type="int" name="KINTER">     0</i>
   <i name="CSHIFT">      0.10000000</i>
   <i name="OMEGAMAX">     -1.00000000</i>
   <i name="DEG_THRESHOLD">      0.00200000</i>
  </separator>
  <separator name="orbital magnetization" >
   <i type="logical" name="NUCIND"> F  </i>
   <v name="MAGPOS">      0.00000000      0.00000000      0.00000000</v>
   <i type="logical" name="LNICSALL"> T  </i>
   <i type="logical" name="ORBITALMAG"> F  </i>
   <i type="logical" name="LMAGBLOCH"> F  </i>
   <i type="logical" name="LCHIMAG"> F  </i>
   <i type="logical" name="LGAUGE"> T  </i>
   <i type="int" name="MAGATOM">     0</i>
   <v name="MAGDIPOL">      0.00000000      0.00000000      0.00000000</v>
   <v name="AVECCONST">      0.00000000      0.00000000      0.00000000</v>
  </separator>
  <separator name="response functions" >
   <i type="logical" name="LADDER"> F  </i>
   <i type="logical" name="LFXC"> F  </i>
   <i type="logical" name="LHARTREE"> T  </i>
   <i type="int" name="IBSE">     0</i>
   <v type="int" name="KPOINT">    -1     0     0     0</v>
   <i type="logical" name="LTCTE"> F  </i>
   <i type="logical" name="LTETE"> F  </i>
   <i type="logical" name="LTRIPLET"> F  </i>
   <i type="logical" name="LFXCEPS"> F  </i>
   <i type="logical" name="LFXHEG"> F  </i>
   <i type="int" name="NATURALO">     0</i>
   <i type="logical" name="L2ORDER"> F  </i>
   <i type="logical" name="LUSEW"> F  </i>
   <i name="ENCUTGW">     -2.00000000</i>
   <i name="ENCUTGWSOFT">     -2.00000000</i>
   <i name="ENCUTLF">     -1.00000000</i>
   <i type="int" name="LMAXMP2">    -1</i>
   <i name="SCISSOR">      0.00000000</i>
   <i type="int" name="NOMEGA">     0</i>
   <i type="int" name="NOMEGAR">     0</i>
   <i type="int" name="NBANDSGW">    -1</i>
   <i type="int" name="NBANDSO">    -1</i>
   <i type="int" name="NBANDSV">    -1</i>
   <i type="int" name="NELM">   100</i>
   <i type="int" name="NELMHF">     1</i>
   <i type="int" name="DIM">     3</i>
   <i type="int" name="ANTIRES">     0</i>
   <i name="OMEGAMAX">    -30.00000000</i>
   <i name="OMEGAMIN">    -30.00000000</i>
   <i name="OMEGATL">   -200.00000000</i>
   <i type="int" name="OMEGAGRID">     0</i>
   <i name="CSHIFT">     -0.10000000</i>
   <i type="logical" name="SELFENERGY"> F  </i>
   <i type="logical" name="LSPECTRAL"> F  </i>
   <i type="logical" name="LSPECTRALGW"> F  </i>
   <i type="logical" name="LSINGLES"> F  </i>
   <i type="logical" name="LFERMIGW"> F  </i>
   <i type="logical" name="ODDONLYGW"> F  </i>
   <i type="logical" name="EVENONLYGW"> F  </i>
   <i type="int" name="NKREDLFX">     1</i>
   <i type="int" name="NKREDLFY">     1</i>
   <i type="int" name="NKREDLFZ">     1</i>
   <i type="int" name="MAXMEM">  1800</i>
   <i type="int" name="TELESCOPE">     0</i>
   <i type="int" name="TAUPAR">     1</i>
   <i type="int" name="OMEGAPAR">    -1</i>
   <i name="LAMBDA">      1.00000000</i>
  </separator>
  <separator name="External order field" >
   <i name="OFIELD_KAPPA">      0.00000000</i>
   <v name="OFIELD_K">      0.00000000      0.00000000      0.00000000</v>
   <i name="OFIELD_Q6_NEAR">      0.00000000</i>
   <i name="OFIELD_Q6_FAR">      0.00000000</i>
   <i name="OFIELD_A">      0.00000000</i>
  </separator>
 </parameters>
 <atominfo>
  <atoms>       8 </atoms>
  <types>       1 </types>
  <array name="atoms" >
   <dimension dim="1">ion</dimension>
   <field type="string">element</field>
   <field type="int">atomtype</field>
   <set>
    <rc><c>Al</c><c>   1</c></rc>
    <rc><c>Al</c><c>   1</c></rc>
    <rc><c>Al</c><c>   1</c></rc>
    <rc><c>Al</c><c>   1</c></rc>
    <rc><c>Al</c><c>   1</c></rc>
    <rc><c>Al</c><c>   1</c></rc>
    <rc><c>Al</c><c>   1</c></rc>
    <rc><c>Al</c><c>   1</c></rc>
   </set>
  </array>
  <array name="atomtypes" >
   <dimension dim="1">type</dimension>
   <field type="int">atomspertype</field>
   <field type="string">element</field>
   <field>mass</field>
   <field>valence</field>
   <field type="string">pseudopotential</field>
   <set>
    <rc><c>   8</c><c>Al</c><c>     26.98100000</c><c>      3.00000000</c><c>  PAW_PBE Al 04Jan2001                  </c></rc>
   </set>
  </array>
 </atominfo>
 <structure name="initialpos" >
  <crystal>
   <varray name="basis" >
    <v>      -4.03801237      -0.00000000       4.03801237 </v>
    <v>       0.00000000       4.03801237       4.03801237 </v>
    <v>      -4.03801237       4.03801237      -0.00000000 </v>
   </varray>
   <i name="volume">    131.68397622 </i>
   <varray name="rec_basis" >
    <v>      -0.12382330      -0.12382330       0.12382330 </v>
    <v>       0.12382330       0.12382330       0.12382330 </v>
    <v>      -0.12382330       0.12382330      -0.12382330 </v>
   </varray>
  </crystal>
  <varray name="positions" >
   <v>       0.00175113       0.00000000       0.00000000 </v>
   <v>       0.50000000       0.00000000       0.00000000 </v>
   <v>       0.00000000       0.50000000       0.00000000 </v>
   <v>       0.50000000       0.50000000       0.00000000 </v>
   <v>       0.00000000       0.00000000       0.50000000 </v>
   <v>       0.50000000       0.00000000       0.50000000 </v>
   <v>       0.00000000       0.50000000       0.50000000 </v>
   <v>       0.50000000       0.50000000       0.50000000 </v>
  </varray>
 </structure>
 <calculation>
  <scstep>
   <time name="dav">    2.22    2.22</time>
   <time name="total">    2.44    2.45</time>
   <energy>
    <i name="alphaZ">     -1.63242210 </i>
    <i name="ewald">   -588.59443826 </i>
    <i name="hartreedc">     -0.80463686 </i>
    <i name="XCdc">   -209.88347458 </i>
    <i name="pawpsdc">    529.60125701 </i>
    <i name="pawaedc">   -273.96496605 </i>
    <i name="eentropy">     -0.00585077 </i>
    <i name="bandstr">    132.53816674 </i>
    <i name="atom">    428.30099202 </i>
    <i name="e_fr_energy">     15.55462714 </i>
    <i name="e_wo_entrp">     15.56047791 </i>
    <i name="e_0_energy">     15.55608983 </i>
   </energy>
  </scstep>
  <scstep>
   <time name="dav">    2.82    2.82</time>
   <time name="total">    2.84    2.85</time>
   <energy>
    <i name="e_fr_energy">    -28.81180256 </i>
    <i name="e_wo_entrp">    -28.79543519 </i>
    <i name="e_0_energy">    -28.80771072 </i>
   </energy>
  </scstep>
  <scstep>
   <time name="dav">    2.74    2.75</time>
   <time name="total">    2.77    2.77</time>
   <energy>
    <i name="e_fr_energy">    -29.95246348 </i>
    <i name="e_wo_entrp">    -29.93410064 </i>
    <i name="e_0_energy">    -29.94787277 </i>
   </energy>
  </scstep>
  <scstep>
   <time name="dav">    2.64    2.64</time>
   <time name="total">    2.66    2.67</time>
   <energy>
    <i name="e_fr_energy">    -29.96234237 </i>
    <i name="e_wo_entrp">    -29.94319769 </i>
    <i name="e_0_energy">    -29.95755620 </i>
   </energy>
  </scstep>
  <scstep>
   <time name="dav">    2.68    2.68</time>
   <time name="total">    2.93    2.94</time>
   <energy>
    <i name="e_fr_energy">    -29.96252536 </i>
    <i name="e_wo_entrp">    -29.94334345 </i>
    <i name="e_0_energy">    -29.95772988 </i>
   </energy>
  </scstep>
  <scstep>
   <time name="dav">    2.49    2.50</time>
   <time name="total">    2.99    2.99</time>
   <energy>
    <i name="e_fr_energy">    -29.85565660 </i>
    <i name="e_wo_entrp">    -29.83598100 </i>
    <i name="e_0_energy">    -29.85073770 </i>
   </energy>
  </scstep>
  <scstep>
   <time name="dav">    2.68    2.68</time>
   <time name="total">    3.19    3.20</time>
   <energy>
    <i name="e_fr_energy">    -29.77811524 </i>
    <i name="e_wo_entrp">    -29.75740398 </i>
    <i name="e_0_energy">    -29.77293742 </i>
   </energy>
  </scstep>
  <scstep>
   <time name="dav">    2.81    2.81</time>
   <time name="total">    3.30    3.31</time>
   <energy>
    <i name="e_fr_energy">    -29.77779671 </i>
    <i name="e_wo_entrp">    -29.75698130 </i>
    <i name="e_0_energy">    -29.77259286 </i>
   </energy>
  </scstep>
  <scstep>
   <time name="dav">    2.90    2.91</time>
   <time name="total">    3.40    3.41</time>
   <energy>
    <i name="e_fr_energy">    -29.77776849 </i>
    <i name="e_wo_entrp">    -29.75693254 </i>
    <i name="e_0_energy">    -29.77255950 </i>
   </energy>
  </scstep>
  <scstep>
   <time name="dav">    2.82    2.83</time>
   <time name="total">    3.32    3.32</time>
   <energy>
    <i name="e_fr_energy">    -29.77776757 </i>
    <i name="e_wo_entrp">    -29.75693151 </i>
    <i name="e_0_energy">    -29.77255856 </i>
   </energy>
  </scstep>
  <scstep>
   <time name="dav">    2.78    2.79</time>
   <time name="total">    3.28    3.29</time>
   <energy>
    <i name="e_fr_energy">    -29.77776561 </i>
    <i name="e_wo_entrp">    -29.75693064 </i>
    <i name="e_0_energy">    -29.77255686 </i>
   </energy>
  </scstep>
  <scstep>
   <time name="dav">    2.16    2.16</time>
   <time name="total">    2.65    2.66</time>
   <energy>
    <i name="e_fr_energy">    -29.77776476 </i>
    <i name="e_wo_entrp">    -29.75693025 </i>
    <i name="e_0_energy">    -29.77255613 </i>
   </energy>
  </scstep>
  <scstep>
   <time name="dav">    2.10    2.10</time>
   <time name="total">    2.60    2.60</time>
   <energy>
    <i name="e_fr_energy">    -29.77776484 </i>
    <i name="e_wo_entrp">    -29.75693035 </i>
    <i name="e_0_energy">    -29.77255622 </i>
   </energy>
  </scstep>
  <scstep>
   <time name="dav">    2.04    2.04</time>
   <time name="total">    2.30    2.30</time>
   <energy>
    <i name="alphaZ">     -1.63242210 </i>
    <i name="ewald">   -588.59443826 </i>
    <i name="hartreedc">     -0.81859329 </i>
    <i name="XCdc">   -209.01507847 </i>
    <i name="pawpsdc">   1202.36160343 </i>
    <i name="pawaedc">   -946.83154952 </i>
    <i name="eentropy">     -0.02083447 </i>
    <i name="bandstr">     86.47255584 </i>
    <i name="atom">    428.30099202 </i>
    <i name="e_fr_energy">    -29.77776484 </i>
    <i name="e_wo_entrp">    -29.75693037 </i>
    <i name="e_0_energy">    -29.77255622 </i>
   </energy>
  </scstep>
  <structure>
   <crystal>
    <varray name="basis" >
     <v>      -4.03801237      -0.00000000       4.03801237 </v>
     <v>       0.00000000       4.03801237       4.03801237 </v>
     <v>      -4.03801237       4.03801237      -0.00000000 </v>
    </varray>
    <i name="volume">    131.68397622 </i>
    <varray name="rec_basis" >
     <v>      -0.12382330      -0.12382330       0.12382330 </v>
     <v>       0.12382330       0.12382330       0.12382330 </v>
     <v>      -0.12382330       0.12382330      -0.12382330 </v>
    </varray>
   </crystal>
   <varray name="positions" >
    <v>       0.00175113       0.00000000       0.00000000 </v>
    <v>       0.50000000       0.00000000       0.00000000 </v>
    <v>       0.00000000       0.50000000       0.00000000 </v>
    <v>       0.50000000       0.50000000       0.00000000 </v>
    <v>       0.00000000       0.00000000       0.50000000 </v>
    <v>       0.50000000       0.00000000       0.50000000 </v>
    <v>       0.00000000       0.50000000       0.50000000 </v>
    <v>       0.50000000       0.50000000       0.50000000 </v>
   </varray>
  </structure>
  <varray name="forces" >
   <v>       0.02578170      -0.00000000      -0.02578170 </v>
   <v>      -0.01540111      -0.00000000       0.01540111 </v>
   <v>       0.00137031       0.00927835       0.00611735 </v>
   <v>      -0.00611735      -0.00927835      -0.00137031 </v>
   <v>      -0.00611735       0.00927835      -0.00137031 </v>
   <v>       0.00137031      -0.00927835       0.00611735 </v>
   <v>       0.00316183      -0.00000000      -0.00316183 </v>
   <v>      -0.00404832       0.00000000       0.00404832 </v>
  </varray>
  <varray name="stress" >
   <v>      -0.47790391      -0.00000000      -0.01202056 </v>
   <v>      -0.00000000      -0.48061639      -0.00000000 </v>
   <v>      -0.01202056       0.00000000      -0.47790391 </v>
  </varray>
  <energy>
   <i name="e_fr_energy">    -29.77776484 </i>
   <i name="e_wo_entrp">    -29.77255622 </i>
   <i name="e_0_energy">     -0.02083447 </i>
  </energy>
  <time name="totalsc">   44.75   44.81</time>
  <eigenvalues>
   <array>
    <dimension dim="1">band</dimension>
    <dimension dim="2">kpoint</dimension>
    <dimension dim="3">spin</dimension>
    <field>eigene</field>
    <field>occ</field>
    <set>
     <set comment="spin 1">
      <set comment="kpoint 1">
       <r>   -3.1257    1.0000 </r>
       <r>    3.4232    1.0000 </r>
       <r>    3.4237    1.0000 </r>
       <r>    3.4238    1.0000 </r>
       <r>    3.4239    1.0000 </r>
       <r>    3.6444    1.0000 </r>
       <r>    3.6444    1.0000 </r>
       <r>    3.6445    1.0000 </r>
       <r>    3.6450    1.0000 </r>
       <r>    5.0960    1.0000 </r>
       <r>    5.0960    1.0000 </r>
       <r>    5.0961    1.0000 </r>
       <r>    6.4284    1.0000 </r>
       <r>    6.4284    1.0000 </r>
       <r>    6.4285    1.0000 </r>
       <r>   13.3068    0.0000 </r>
       <r>   13.3068    0.0000 </r>
      </set>
      <set comment="kpoint 2">
       <r>   -2.8536    1.0000 </r>
       <r>    1.1675    1.0000 </r>
       <r>    2.9134    1.0000 </r>
       <r>    2.9153    1.0000 </r>
       <r>    2.9172    1.0000 </r>
       <r>    4.1559    1.0000 </r>
       <r>    4.1577    1.0000 </r>
       <r>    4.1594    1.0000 </r>
       <r>    4.6637    1.0000 </r>
       <r>    4.6656    1.0000 </r>
       <r>    4.6676    1.0000 </r>
       <r>    6.3781    1.0000 </r>
       <r>    7.8600    1.0089 </r>
       <r>    7.8619    1.0096 </r>
       <r>    7.8640    1.0103 </r>
       <r>   10.8835    0.0000 </r>
       <r>   10.8871    0.0000 </r>
      </set>
      <set comment="kpoint 3">
       <r>   -2.0403    1.0000 </r>
       <r>   -0.6950    1.0000 </r>
       <r>    2.8249    1.0000 </r>
       <r>    2.8268    1.0000 </r>
       <r>    2.8287    1.0000 </r>
       <r>    3.2492    1.0000 </r>
       <r>    3.2511    1.0000 </r>
       <r>    3.2530    1.0000 </r>
       <r>    6.2820    1.0000 </r>
       <r>    6.2840    1.0000 </r>
       <r>    6.2861    1.0000 </r>
       <r>    8.3581   -0.0516 </r>
       <r>    8.3605   -0.0515 </r>
       <r>    8.3630   -0.0514 </r>
       <r>    9.6699    0.0000 </r>
       <r>   10.3081    0.0000 </r>
       <r>   10.3094    0.0000 </r>
      </set>
      <set comment="kpoint 4">
       <r>   -2.8536    1.0000 </r>
       <r>    1.1675    1.0000 </r>
       <r>    2.9120    1.0000 </r>
       <r>    2.9153    1.0000 </r>
       <r>    2.9186    1.0000 </r>
       <r>    4.1547    1.0000 </r>
       <r>    4.1578    1.0000 </r>
       <r>    4.1609    1.0000 </r>
       <r>    4.6622    1.0000 </r>
       <r>    4.6655    1.0000 </r>
       <r>    4.6689    1.0000 </r>
       <r>    6.3780    1.0000 </r>
       <r>    7.8585    1.0084 </r>
       <r>    7.8619    1.0096 </r>
       <r>    7.8654    1.0108 </r>
       <r>   10.8818    0.0000 </r>
       <r>   10.8861    0.0000 </r>
      </set>
      <set comment="kpoint 5">
       <r>   -2.7630    1.0000 </r>
       <r>    2.1271    1.0000 </r>
       <r>    2.1299    1.0000 </r>
       <r>    2.1357    1.0000 </r>
       <r>    2.1383    1.0000 </r>
       <r>    2.5562    1.0000 </r>
       <r>    5.4282    1.0000 </r>
       <r>    5.4282    1.0000 </r>
       <r>    5.5999    1.0000 </r>
       <r>    5.6027    1.0000 </r>
       <r>    5.6086    1.0000 </r>
       <r>    5.6115    1.0000 </r>
       <r>    6.7761    1.0000 </r>
       <r>    6.7762    1.0000 </r>
       <r>    9.5961    0.0000 </r>
       <r>   10.4395    0.0000 </r>
       <r>   10.4395    0.0000 </r>
      </set>
      <set comment="kpoint 6">
       <r>   -2.1304    1.0000 </r>
       <r>    0.1062    1.0000 </r>
       <r>    1.4276    1.0000 </r>
       <r>    1.8680    1.0000 </r>
       <r>    1.8707    1.0000 </r>
       <r>    3.6074    1.0000 </r>
       <r>    4.8393    1.0000 </r>
       <r>    4.8419    1.0000 </r>
       <r>    5.3387    1.0000 </r>
       <r>    7.0390    1.0000 </r>
       <r>    7.0421    1.0000 </r>
       <r>    8.1456    0.6055 </r>
       <r>    8.1501    0.5820 </r>
       <r>    8.6582    0.0023 </r>
       <r>    8.6588    0.0023 </r>
       <r>    8.7358    0.0006 </r>
       <r>   11.4760    0.0000 </r>
      </set>
      <set comment="kpoint 7">
       <r>   -1.4110    1.0000 </r>
       <r>   -0.9631    1.0000 </r>
       <r>    0.8136    1.0000 </r>
       <r>    2.1277    1.0000 </r>
       <r>    2.1304    1.0000 </r>
       <r>    4.2816    1.0000 </r>
       <r>    4.2842    1.0000 </r>
       <r>    5.4233    1.0000 </r>
       <r>    5.6934    1.0000 </r>
       <r>    6.0190    1.0000 </r>
       <r>    6.0218    1.0000 </r>
       <r>    8.9129    0.0000 </r>
       <r>    8.9167    0.0000 </r>
       <r>    9.2714    0.0000 </r>
       <r>    9.3875    0.0000 </r>
       <r>   11.0661    0.0000 </r>
       <r>   11.2809    0.0000 </r>
      </set>
      <set comment="kpoint 8">
       <r>   -2.4012    1.0000 </r>
       <r>    0.7217    1.0000 </r>
       <r>    0.7301    1.0000 </r>
       <r>    2.9027    1.0000 </r>
       <r>    2.9053    1.0000 </r>
       <r>    4.0952    1.0000 </r>
       <r>    4.0952    1.0000 </r>
       <r>    4.3480    1.0000 </r>
       <r>    4.3481    1.0000 </r>
       <r>    5.7611    1.0000 </r>
       <r>    7.0800    1.0000 </r>
       <r>    7.6428    0.9986 </r>
       <r>    7.6518    0.9983 </r>
       <r>    8.1156    0.7523 </r>
       <r>    9.9098    0.0000 </r>
       <r>    9.9135    0.0000 </r>
       <r>   10.7747    0.0000 </r>
      </set>
      <set comment="kpoint 9">
       <r>   -2.0403    1.0000 </r>
       <r>   -0.6950    1.0000 </r>
       <r>    2.8235    1.0000 </r>
       <r>    2.8268    1.0000 </r>
       <r>    2.8301    1.0000 </r>
       <r>    3.2479    1.0000 </r>
       <r>    3.2511    1.0000 </r>
       <r>    3.2544    1.0000 </r>
       <r>    6.2805    1.0000 </r>
       <r>    6.2840    1.0000 </r>
       <r>    6.2875    1.0000 </r>
       <r>    8.3563   -0.0516 </r>
       <r>    8.3605   -0.0515 </r>
       <r>    8.3648   -0.0512 </r>
       <r>    9.6699    0.0000 </r>
       <r>   10.3065    0.0000 </r>
       <r>   10.3099    0.0000 </r>
      </set>
      <set comment="kpoint 10">
       <r>   -2.1304    1.0000 </r>
       <r>    0.1061    1.0000 </r>
       <r>    1.4276    1.0000 </r>
       <r>    1.8680    1.0000 </r>
       <r>    1.8707    1.0000 </r>
       <r>    3.6074    1.0000 </r>
       <r>    4.8393    1.0000 </r>
       <r>    4.8419    1.0000 </r>
       <r>    5.3387    1.0000 </r>
       <r>    7.0390    1.0000 </r>
       <r>    7.0420    1.0000 </r>
       <r>    8.1456    0.6054 </r>
       <r>    8.1501    0.5819 </r>
       <r>    8.6582    0.0023 </r>
       <r>    8.6587    0.0023 </r>
       <r>    8.7358    0.0006 </r>
       <r>   11.4761    0.0000 </r>
      </set>
      <set comment="kpoint 11">
       <r>   -1.6803    1.0000 </r>
       <r>    0.1053    1.0000 </r>
       <r>    1.4256    1.0000 </r>
       <r>    1.4283    1.0000 </r>
       <r>    1.4340    1.0000 </r>
       <r>    1.4367    1.0000 </r>
       <r>    6.4271    1.0000 </r>
       <r>    6.4272    1.0000 </r>
       <r>    7.7635    0.9951 </r>
       <r>    7.7635    0.9951 </r>
       <r>    8.0962    0.8353 </r>
       <r>    8.0962    0.8353 </r>
       <r>    8.2433    0.1338 </r>
       <r>    8.2468    0.1213 </r>
       <r>    8.2526    0.1014 </r>
       <r>    8.2563    0.0894 </r>
       <r>    9.7325    0.0000 </r>
      </set>
      <set comment="kpoint 12">
       <r>   -0.6994    1.0000 </r>
       <r>   -0.6911    1.0000 </r>
       <r>   -0.2496    1.0000 </r>
       <r>    1.5170    1.0000 </r>
       <r>    1.5198    1.0000 </r>
       <r>    3.2634    1.0000 </r>
       <r>    6.0832    1.0000 </r>
       <r>    6.0833    1.0000 </r>
       <r>    6.3284    1.0000 </r>
       <r>    6.3285    1.0000 </r>
       <r>    7.7620    0.9951 </r>
       <r>    9.2653    0.0000 </r>
       <r>    9.4311    0.0000 </r>
       <r>    9.4363    0.0000 </r>
       <r>    9.6290    0.0000 </r>
       <r>    9.6291    0.0000 </r>
       <r>   10.3042    0.0000 </r>
      </set>
      <set comment="kpoint 13">
       <r>   -1.4110    1.0000 </r>
       <r>   -0.9632    1.0000 </r>
       <r>    0.8136    1.0000 </r>
       <r>    2.1277    1.0000 </r>
       <r>    2.1304    1.0000 </r>
       <r>    4.2816    1.0000 </r>
       <r>    4.2843    1.0000 </r>
       <r>    5.4233    1.0000 </r>
       <r>    5.6933    1.0000 </r>
       <r>    6.0190    1.0000 </r>
       <r>    6.0218    1.0000 </r>
       <r>    8.9129    0.0000 </r>
       <r>    8.9167    0.0000 </r>
       <r>    9.2714    0.0000 </r>
       <r>    9.3875    0.0000 </r>
       <r>   11.0661    0.0000 </r>
       <r>   11.2818    0.0000 </r>
      </set>
      <set comment="kpoint 14">
       <r>   -2.7630    1.0000 </r>
       <r>    2.1238    1.0000 </r>
       <r>    2.1328    1.0000 </r>
       <r>    2.1328    1.0000 </r>
       <r>    2.1416    1.0000 </r>
       <r>    2.5562    1.0000 </r>
       <r>    5.4279    1.0000 </r>
       <r>    5.4284    1.0000 </r>
       <r>    5.5966    1.0000 </r>
       <r>    5.6055    1.0000 </r>
       <r>    5.6056    1.0000 </r>
       <r>    5.6150    1.0000 </r>
       <r>    6.7762    1.0000 </r>
       <r>    6.7762    1.0000 </r>
       <r>    9.5961    0.0000 </r>
       <r>   10.4394    0.0000 </r>
       <r>   10.4395    0.0000 </r>
      </set>
      <set comment="kpoint 15">
       <r>   -2.4012    1.0000 </r>
       <r>    0.7259    1.0000 </r>
       <r>    0.7260    1.0000 </r>
       <r>    2.9040    1.0000 </r>
       <r>    2.9040    1.0000 </r>
       <r>    4.0953    1.0000 </r>
       <r>    4.0953    1.0000 </r>
       <r>    4.3480    1.0000 </r>
       <r>    4.3481    1.0000 </r>
       <r>    5.7610    1.0000 </r>
       <r>    7.0799    1.0000 </r>
       <r>    7.6473    0.9985 </r>
       <r>    7.6473    0.9985 </r>
       <r>    8.1156    0.7522 </r>
       <r>    9.9116    0.0000 </r>
       <r>    9.9116    0.0000 </r>
       <r>   10.7745    0.0000 </r>
      </set>
      <set comment="kpoint 16">
       <r>   -1.4110    1.0000 </r>
       <r>   -0.9631    1.0000 </r>
       <r>    0.8136    1.0000 </r>
       <r>    2.1291    1.0000 </r>
       <r>    2.1291    1.0000 </r>
       <r>    4.2830    1.0000 </r>
       <r>    4.2830    1.0000 </r>
       <r>    5.4233    1.0000 </r>
       <r>    5.6933    1.0000 </r>
       <r>    6.0204    1.0000 </r>
       <r>    6.0204    1.0000 </r>
       <r>    8.9148    0.0000 </r>
       <r>    8.9148    0.0000 </r>
       <r>    9.2714    0.0000 </r>
       <r>    9.3875    0.0000 </r>
       <r>   11.0661    0.0000 </r>
       <r>   11.2815    0.0000 </r>
      </set>
      <set comment="kpoint 17">
       <r>   -2.1304    1.0000 </r>
       <r>    0.1061    1.0000 </r>
       <r>    1.4276    1.0000 </r>
       <r>    1.8693    1.0000 </r>
       <r>    1.8693    1.0000 </r>
       <r>    3.6074    1.0000 </r>
       <r>    4.8406    1.0000 </r>
       <r>    4.8406    1.0000 </r>
       <r>    5.3386    1.0000 </r>
       <r>    7.0405    1.0000 </r>
       <r>    7.0405    1.0000 </r>
       <r>    8.1478    0.5937 </r>
       <r>    8.1479    0.5937 </r>
       <r>    8.6586    0.0023 </r>
       <r>    8.6586    0.0023 </r>
       <r>    8.7356    0.0006 </r>
       <r>   11.4760    0.0000 </r>
      </set>
      <set comment="kpoint 18">
       <r>   -2.1304    1.0000 </r>
       <r>    0.1061    1.0000 </r>
       <r>    1.4275    1.0000 </r>
       <r>    1.8667    1.0000 </r>
       <r>    1.8722    1.0000 </r>
       <r>    3.6074    1.0000 </r>
       <r>    4.8380    1.0000 </r>
       <r>    4.8431    1.0000 </r>
       <r>    5.3387    1.0000 </r>
       <r>    7.0374    1.0000 </r>
       <r>    7.0436    1.0000 </r>
       <r>    8.1433    0.6171 </r>
       <r>    8.1524    0.5701 </r>
       <r>    8.6577    0.0023 </r>
       <r>    8.6589    0.0023 </r>
       <r>    8.7361    0.0006 </r>
       <r>   11.4761    0.0000 </r>
      </set>
      <set comment="kpoint 19">
       <r>   -1.3213    1.0000 </r>
       <r>    0.0172    1.0000 </r>
       <r>    0.0172    1.0000 </r>
       <r>    0.4598    1.0000 </r>
       <r>    3.5208    1.0000 </r>
       <r>    3.5209    1.0000 </r>
       <r>    3.9427    1.0000 </r>
       <r>    5.6485    1.0000 </r>
       <r>    6.7607    1.0000 </r>
       <r>    6.8965    1.0000 </r>
       <r>    6.8966    1.0000 </r>
       <r>    8.2303    0.1845 </r>
       <r>    8.4307   -0.0258 </r>
       <r>    9.8423    0.0000 </r>
       <r>   10.2637    0.0000 </r>
       <r>   10.2638    0.0000 </r>
       <r>   10.6108    0.0000 </r>
      </set>
      <set comment="kpoint 20">
       <r>   -1.3213    1.0000 </r>
       <r>    0.0129    1.0000 </r>
       <r>    0.0213    1.0000 </r>
       <r>    0.4599    1.0000 </r>
       <r>    3.5166    1.0000 </r>
       <r>    3.5251    1.0000 </r>
       <r>    3.9427    1.0000 </r>
       <r>    5.6485    1.0000 </r>
       <r>    6.7606    1.0000 </r>
       <r>    6.8920    1.0000 </r>
       <r>    6.9012    1.0000 </r>
       <r>    8.2303    0.1846 </r>
       <r>    8.4307   -0.0258 </r>
       <r>    9.8423    0.0000 </r>
       <r>   10.2589    0.0000 </r>
       <r>   10.2686    0.0000 </r>
       <r>   10.6122    0.0000 </r>
      </set>
      <set comment="kpoint 21">
       <r>   -1.4110    1.0000 </r>
       <r>   -0.9632    1.0000 </r>
       <r>    0.8135    1.0000 </r>
       <r>    2.1264    1.0000 </r>
       <r>    2.1318    1.0000 </r>
       <r>    4.2803    1.0000 </r>
       <r>    4.2856    1.0000 </r>
       <r>    5.4233    1.0000 </r>
       <r>    5.6934    1.0000 </r>
       <r>    6.0176    1.0000 </r>
       <r>    6.0231    1.0000 </r>
       <r>    8.9111    0.0000 </r>
       <r>    8.9185    0.0000 </r>
       <r>    9.2714    0.0000 </r>
       <r>    9.3875    0.0000 </r>
       <r>   11.0661    0.0000 </r>
       <r>   11.2800    0.0000 </r>
      </set>
      <set comment="kpoint 22">
       <r>   -1.3213    1.0000 </r>
       <r>    0.0129    1.0000 </r>
       <r>    0.0213    1.0000 </r>
       <r>    0.4599    1.0000 </r>
       <r>    3.5166    1.0000 </r>
       <r>    3.5251    1.0000 </r>
       <r>    3.9427    1.0000 </r>
       <r>    5.6485    1.0000 </r>
       <r>    6.7606    1.0000 </r>
       <r>    6.8920    1.0000 </r>
       <r>    6.9012    1.0000 </r>
       <r>    8.2303    0.1846 </r>
       <r>    8.4308   -0.0258 </r>
       <r>    9.8423    0.0000 </r>
       <r>   10.2589    0.0000 </r>
       <r>   10.2686    0.0000 </r>
       <r>   10.6139    0.0000 </r>
      </set>
      <set comment="kpoint 23">
       <r>   -1.3213    1.0000 </r>
       <r>    0.0170    1.0000 </r>
       <r>    0.0172    1.0000 </r>
       <r>    0.4600    1.0000 </r>
       <r>    3.5208    1.0000 </r>
       <r>    3.5209    1.0000 </r>
       <r>    3.9427    1.0000 </r>
       <r>    5.6485    1.0000 </r>
       <r>    6.7605    1.0000 </r>
       <r>    6.8965    1.0000 </r>
       <r>    6.8968    1.0000 </r>
       <r>    8.2303    0.1843 </r>
       <r>    8.4307   -0.0258 </r>
       <r>    9.8424    0.0000 </r>
       <r>   10.2637    0.0000 </r>
       <r>   10.2638    0.0000 </r>
       <r>   10.6108    0.0000 </r>
      </set>
      <set comment="kpoint 24">
       <r>   -2.4012    1.0000 </r>
       <r>    0.7259    1.0000 </r>
       <r>    0.7259    1.0000 </r>
       <r>    2.9014    1.0000 </r>
       <r>    2.9067    1.0000 </r>
       <r>    4.0952    1.0000 </r>
       <r>    4.0953    1.0000 </r>
       <r>    4.3480    1.0000 </r>
       <r>    4.3481    1.0000 </r>
       <r>    5.7611    1.0000 </r>
       <r>    7.0800    1.0000 </r>
       <r>    7.6472    0.9985 </r>
       <r>    7.6473    0.9985 </r>
       <r>    8.1156    0.7523 </r>
       <r>    9.9080    0.0000 </r>
       <r>    9.9153    0.0000 </r>
       <r>   10.7725    0.0000 </r>
      </set>
      <set comment="kpoint 25">
       <r>   -1.6803    1.0000 </r>
       <r>    0.1053    1.0000 </r>
       <r>    1.4223    1.0000 </r>
       <r>    1.4311    1.0000 </r>
       <r>    1.4311    1.0000 </r>
       <r>    1.4400    1.0000 </r>
       <r>    6.4271    1.0000 </r>
       <r>    6.4272    1.0000 </r>
       <r>    7.7634    0.9951 </r>
       <r>    7.7636    0.9951 </r>
       <r>    8.0961    0.8355 </r>
       <r>    8.0963    0.8348 </r>
       <r>    8.2397    0.1474 </r>
       <r>    8.2497    0.1112 </r>
       <r>    8.2497    0.1110 </r>
       <r>    8.2598    0.0786 </r>
       <r>    9.7325    0.0000 </r>
      </set>
      <set comment="kpoint 26">
       <r>   -0.6953    1.0000 </r>
       <r>   -0.6952    1.0000 </r>
       <r>   -0.2495    1.0000 </r>
       <r>    1.5184    1.0000 </r>
       <r>    1.5184    1.0000 </r>
       <r>    3.2634    1.0000 </r>
       <r>    6.0833    1.0000 </r>
       <r>    6.0833    1.0000 </r>
       <r>    6.3284    1.0000 </r>
       <r>    6.3284    1.0000 </r>
       <r>    7.7619    0.9951 </r>
       <r>    9.2654    0.0000 </r>
       <r>    9.4336    0.0000 </r>
       <r>    9.4337    0.0000 </r>
       <r>    9.6290    0.0000 </r>
       <r>    9.6292    0.0000 </r>
       <r>   10.3042    0.0000 </r>
      </set>
      <set comment="kpoint 27">
       <r>   -0.6953    1.0000 </r>
       <r>   -0.6952    1.0000 </r>
       <r>   -0.2496    1.0000 </r>
       <r>    1.5157    1.0000 </r>
       <r>    1.5212    1.0000 </r>
       <r>    3.2634    1.0000 </r>
       <r>    6.0833    1.0000 </r>
       <r>    6.0833    1.0000 </r>
       <r>    6.3284    1.0000 </r>
       <r>    6.3285    1.0000 </r>
       <r>    7.7620    0.9951 </r>
       <r>    9.2655    0.0000 </r>
       <r>    9.4285    0.0000 </r>
       <r>    9.4389    0.0000 </r>
       <r>    9.6289    0.0000 </r>
       <r>    9.6291    0.0000 </r>
       <r>   10.3042    0.0000 </r>
      </set>
     </set>
    </set>
   </array>
  </eigenvalues>
  <separator name="orbital magnetization" >
   <v name="MAGDIPOLOUT">      0.00000000      0.00000000      0.00000000</v>
  </separator>
  <dos>
   <i name="efermi">      8.16567986 </i>
   <total>
    <array>
     <dimension dim="1">gridpoints</dimension>
     <dimension dim="2">spin</dimension>
     <field>energy</field>
     <field>total</field>
     <field>integrated</field>
     <set>
      <set comment="spin 1">
       <r>    -5.1257     0.0000     0.0000 </r>
       <r>    -5.0576     0.0000     0.0000 </r>
       <r>    -4.9895     0.0000     0.0000 </r>
       <r>    -4.9214     0.0000     0.0000 </r>
       <r>    -4.8533     0.0000     0.0000 </r>
       <r>    -4.7852     0.0000     0.0000 </r>
       <r>    -4.7171     0.0000     0.0000 </r>
       <r>    -4.6490     0.0000     0.0000 </r>
       <r>    -4.5809     0.0000     0.0000 </r>
       <r>    -4.5128     0.0000     0.0000 </r>
       <r>    -4.4446     0.0000     0.0000 </r>
       <r>    -4.3765     0.0000     0.0000 </r>
       <r>    -4.3084     0.0000     0.0000 </r>
       <r>    -4.2403     0.0000     0.0000 </r>
       <r>    -4.1722     0.0000     0.0000 </r>
       <r>    -4.1041     0.0000     0.0000 </r>
       <r>    -4.0360     0.0000     0.0000 </r>
       <r>    -3.9679     0.0000     0.0000 </r>
       <r>    -3.8998     0.0000     0.0000 </r>
       <r>    -3.8317     0.0000     0.0000 </r>
       <r>    -3.7636     0.0000     0.0000 </r>
       <r>    -3.6955     0.0001     0.0000 </r>
       <r>    -3.6273     0.0003     0.0000 </r>
       <r>    -3.5592     0.0006     0.0001 </r>
       <r>    -3.4911    -0.0000     0.0001 </r>
       <r>    -3.4230    -0.0026    -0.0001 </r>
       <r>    -3.3549    -0.0041    -0.0004 </r>
       <r>    -3.2868     0.0061     0.0000 </r>
       <r>    -3.2187     0.0303     0.0021 </r>
       <r>    -3.1506     0.0402     0.0048 </r>
       <r>    -3.0825     0.0117     0.0056 </r>
       <r>    -3.0144     0.0213     0.0071 </r>
       <r>    -2.9463     0.2294     0.0227 </r>
       <r>    -2.8782     0.6483     0.0669 </r>
       <r>    -2.8100     0.9940     0.1346 </r>
       <r>    -2.7419     0.9409     0.1986 </r>
       <r>    -2.6738     0.5112     0.2335 </r>
       <r>    -2.6057     0.0906     0.2396 </r>
       <r>    -2.5376     0.0647     0.2440 </r>
       <r>    -2.4695     0.4357     0.2737 </r>
       <r>    -2.4014     0.7751     0.3265 </r>
       <r>    -2.3333     0.7459     0.3773 </r>
       <r>    -2.2652     0.6836     0.4239 </r>
       <r>    -2.1971     1.1832     0.5045 </r>
       <r>    -2.1290     2.0475     0.6439 </r>
       <r>    -2.0608     2.3433     0.8035 </r>
       <r>    -1.9927     1.6556     0.9163 </r>
       <r>    -1.9246     0.6010     0.9572 </r>
       <r>    -1.8565    -0.0185     0.9559 </r>
       <r>    -1.7884    -0.0191     0.9546 </r>
       <r>    -1.7203     0.2244     0.9699 </r>
       <r>    -1.6522     0.2856     0.9894 </r>
       <r>    -1.5841     0.2065     1.0034 </r>
       <r>    -1.5160     0.5782     1.0428 </r>
       <r>    -1.4479     1.7791     1.1640 </r>
       <r>    -1.3798     3.1423     1.3780 </r>
       <r>    -1.3117     3.4308     1.6117 </r>
       <r>    -1.2435     2.2840     1.7672 </r>
       <r>    -1.1754     0.7263     1.8167 </r>
       <r>    -1.1073     0.0851     1.8225 </r>
       <r>    -1.0392     0.6586     1.8674 </r>
       <r>    -0.9711     1.5210     1.9709 </r>
       <r>    -0.9030     1.6900     2.0861 </r>
       <r>    -0.8349     1.4028     2.1816 </r>
       <r>    -0.7668     1.6205     2.2920 </r>
       <r>    -0.6987     2.3099     2.4493 </r>
       <r>    -0.6306     2.3742     2.6110 </r>
       <r>    -0.5625     1.4017     2.7065 </r>
       <r>    -0.4944     0.2500     2.7235 </r>
       <r>    -0.4262    -0.1968     2.7101 </r>
       <r>    -0.3581     0.0924     2.7164 </r>
       <r>    -0.2900     0.5448     2.7535 </r>
       <r>    -0.2219     0.6180     2.7956 </r>
       <r>    -0.1538     0.5274     2.8315 </r>
       <r>    -0.0857     1.3147     2.9211 </r>
       <r>    -0.0176     3.4197     3.1540 </r>
       <r>     0.0505     5.4313     3.5239 </r>
       <r>     0.1186     5.3973     3.8915 </r>
       <r>     0.1867     3.2411     4.1122 </r>
       <r>     0.2548     0.8586     4.1707 </r>
       <r>     0.3230    -0.0146     4.1697 </r>
       <r>     0.3911     0.6591     4.2146 </r>
       <r>     0.4592     1.5704     4.3216 </r>
       <r>     0.5273     1.6208     4.4320 </r>
       <r>     0.5954     1.1704     4.5117 </r>
       <r>     0.6635     1.4296     4.6090 </r>
       <r>     0.7316     2.6001     4.7861 </r>
       <r>     0.7997     3.4274     5.0196 </r>
       <r>     0.8678     2.8592     5.2143 </r>
       <r>     0.9359     1.3652     5.3073 </r>
       <r>     1.0040     0.2115     5.3217 </r>
       <r>     1.0721    -0.0296     5.3197 </r>
       <r>     1.1403     0.1670     5.3310 </r>
       <r>     1.2084     0.2195     5.3460 </r>
       <r>     1.2765     0.4503     5.3767 </r>
       <r>     1.3446     1.7503     5.4959 </r>
       <r>     1.4127     3.9597     5.7656 </r>
       <r>     1.4808     5.3313     6.1287 </r>
       <r>     1.5489     4.4344     6.4307 </r>
       <r>     1.6170     2.0056     6.5673 </r>
       <r>     1.6851     0.2142     6.5819 </r>
       <r>     1.7532     0.4865     6.6150 </r>
       <r>     1.8213     2.1932     6.7644 </r>
       <r>     1.8895     3.3665     6.9937 </r>
       <r>     1.9576     3.1964     7.2114 </r>
       <r>     2.0257     3.1937     7.4289 </r>
       <r>     2.0938     4.5306     7.7375 </r>
       <r>     2.1619     5.6110     8.1196 </r>
       <r>     2.2300     4.4359     8.4217 </r>
       <r>     2.2981     1.7821     8.5431 </r>
       <r>     2.3662    -0.0886     8.5371 </r>
       <r>     2.4343    -0.3766     8.5114 </r>
       <r>     2.5024     0.0667     8.5160 </r>
       <r>     2.5705     0.2740     8.5346 </r>
       <r>     2.6386     0.0981     8.5413 </r>
       <r>     2.7068     0.2933     8.5613 </r>
       <r>     2.7749     1.7413     8.6799 </r>
       <r>     2.8430     4.0644     8.9567 </r>
       <r>     2.9111     5.3899     9.3238 </r>
       <r>     2.9792     4.3358     9.6191 </r>
       <r>     3.0473     1.9056     9.7489 </r>
       <r>     3.1154     0.4681     9.7808 </r>
       <r>     3.1835     1.0052     9.8492 </r>
       <r>     3.2516     2.1976     9.9989 </r>
       <r>     3.3197     2.4608    10.1665 </r>
       <r>     3.3878     2.1909    10.3157 </r>
       <r>     3.4559     2.9507    10.5167 </r>
       <r>     3.5241     4.7074    10.8373 </r>
       <r>     3.5922     5.5039    11.2122 </r>
       <r>     3.6603     4.1364    11.4939 </r>
       <r>     3.7284     1.7209    11.6111 </r>
       <r>     3.7965     0.2082    11.6253 </r>
       <r>     3.8646     0.3270    11.6476 </r>
       <r>     3.9327     1.3539    11.7398 </r>
       <r>     4.0008     2.3524    11.9000 </r>
       <r>     4.0689     3.1297    12.1132 </r>
       <r>     4.1370     4.0284    12.3875 </r>
       <r>     4.2051     5.2212    12.7432 </r>
       <r>     4.2733     6.2049    13.1658 </r>
       <r>     4.3414     5.9061    13.5680 </r>
       <r>     4.4095     3.8953    13.8333 </r>
       <r>     4.4776     1.3878    13.9278 </r>
       <r>     4.5457     0.1226    13.9362 </r>
       <r>     4.6138     0.5277    13.9721 </r>
       <r>     4.6819     1.7946    14.0944 </r>
       <r>     4.7500     3.1694    14.3102 </r>
       <r>     4.8181     4.1468    14.5927 </r>
       <r>     4.8862     4.0233    14.8667 </r>
       <r>     4.9543     2.6038    15.0440 </r>
       <r>     5.0224     0.8520    15.1020 </r>
       <r>     5.0906    -0.1832    15.0896 </r>
       <r>     5.1587    -0.3333    15.0669 </r>
       <r>     5.2268     0.3052    15.0877 </r>
       <r>     5.2949     1.7514    15.2069 </r>
       <r>     5.3630     3.3843    15.4374 </r>
       <r>     5.4311     4.0781    15.7152 </r>
       <r>     5.4992     3.8343    15.9763 </r>
       <r>     5.5673     4.0306    16.2509 </r>
       <r>     5.6354     5.1366    16.6007 </r>
       <r>     5.7035     5.5820    16.9809 </r>
       <r>     5.7716     4.0545    17.2570 </r>
       <r>     5.8397     1.7462    17.3760 </r>
       <r>     5.9079     1.1286    17.4528 </r>
       <r>     5.9760     2.8751    17.6486 </r>
       <r>     6.0441     4.8792    17.9810 </r>
       <r>     6.1122     4.9001    18.3147 </r>
       <r>     6.1803     3.5355    18.5555 </r>
       <r>     6.2484     3.1037    18.7669 </r>
       <r>     6.3165     4.0848    19.0451 </r>
       <r>     6.3846     4.6497    19.3618 </r>
       <r>     6.4527     3.4989    19.6001 </r>
       <r>     6.5208     1.4013    19.6955 </r>
       <r>     6.5889    -0.0179    19.6943 </r>
       <r>     6.6571     0.1654    19.7056 </r>
       <r>     6.7252     1.7254    19.8231 </r>
       <r>     6.7933     3.6778    20.0736 </r>
       <r>     6.8614     5.1403    20.4237 </r>
       <r>     6.9295     5.9564    20.8293 </r>
       <r>     6.9976     6.2740    21.2567 </r>
       <r>     7.0657     5.7571    21.6488 </r>
       <r>     7.1338     4.0129    21.9221 </r>
       <r>     7.2019     1.6876    22.0370 </r>
       <r>     7.2700     0.0570    22.0409 </r>
       <r>     7.3381    -0.4469    22.0105 </r>
       <r>     7.4062    -0.3805    21.9846 </r>
       <r>     7.4744    -0.1724    21.9728 </r>
       <r>     7.5425     0.3602    21.9973 </r>
       <r>     7.6106     1.4306    22.0948 </r>
       <r>     7.6787     2.7513    22.2822 </r>
       <r>     7.7468     3.7133    22.5351 </r>
       <r>     7.8149     3.7689    22.7918 </r>
       <r>     7.8830     2.7504    22.9791 </r>
       <r>     7.9511     1.4415    23.0773 </r>
       <r>     8.0192     1.5299    23.1815 </r>
       <r>     8.0873     3.8646    23.4447 </r>
       <r>     8.1554     6.9305    23.9167 </r>
       <r>     8.2235     8.2997    24.4820 </r>
       <r>     8.2917     7.3709    24.9840 </r>
       <r>     8.3598     5.4252    25.3535 </r>
       <r>     8.4279     3.5720    25.5968 </r>
       <r>     8.4960     2.2814    25.7522 </r>
       <r>     8.5641     2.2318    25.9042 </r>
       <r>     8.6322     3.5639    26.1469 </r>
       <r>     8.7003     4.8794    26.4792 </r>
       <r>     8.7684     4.9180    26.8142 </r>
       <r>     8.8365     4.3181    27.1083 </r>
       <r>     8.9046     4.0084    27.3813 </r>
       <r>     8.9727     3.3898    27.6122 </r>
       <r>     9.0409     1.8331    27.7370 </r>
       <r>     9.1090     0.3858    27.7633 </r>
       <r>     9.1771     0.5174    27.7986 </r>
       <r>     9.2452     2.2173    27.9496 </r>
       <r>     9.3133     4.1342    28.2311 </r>
       <r>     9.3814     4.9632    28.5692 </r>
       <r>     9.4495     4.4252    28.8706 </r>
       <r>     9.5176     3.3544    29.0990 </r>
       <r>     9.5857     2.7857    29.2888 </r>
       <r>     9.6538     2.8192    29.4808 </r>
       <r>     9.7219     2.9593    29.6823 </r>
       <r>     9.7900     3.2127    29.9011 </r>
       <r>     9.8582     3.6393    30.1490 </r>
       <r>     9.9263     3.4637    30.3849 </r>
       <r>     9.9944     2.0612    30.5253 </r>
       <r>    10.0625     0.3639    30.5501 </r>
       <r>    10.1306     0.2500    30.5671 </r>
       <r>    10.1987     2.4462    30.7337 </r>
       <r>    10.2668     5.2819    31.0935 </r>
       <r>    10.3349     6.1467    31.5121 </r>
       <r>    10.4030     4.4654    31.8162 </r>
       <r>    10.4711     2.2274    31.9680 </r>
       <r>    10.5392     1.3167    32.0576 </r>
       <r>    10.6073     1.6000    32.1666 </r>
       <r>    10.6755     1.9402    32.2987 </r>
       <r>    10.7436     1.8890    32.4274 </r>
       <r>    10.8117     1.7466    32.5464 </r>
       <r>    10.8798     1.7138    32.6631 </r>
       <r>    10.9479     1.7579    32.7828 </r>
       <r>    11.0160     1.8623    32.9097 </r>
       <r>    11.0841     1.9107    33.0398 </r>
       <r>    11.1522     1.7965    33.1622 </r>
       <r>    11.2203     1.7109    33.2787 </r>
       <r>    11.2884     1.8217    33.4028 </r>
       <r>    11.3565     2.0064    33.5394 </r>
       <r>    11.4247     2.1408    33.6852 </r>
       <r>    11.4928     2.0762    33.8266 </r>
       <r>    11.5609     1.5595    33.9328 </r>
       <r>    11.6290     0.7052    33.9809 </r>
       <r>    11.6971     0.0407    33.9836 </r>
       <r>    11.7652    -0.1592    33.9728 </r>
       <r>    11.8333    -0.0895    33.9667 </r>
       <r>    11.9014    -0.0081    33.9661 </r>
       <r>    11.9695     0.0142    33.9671 </r>
       <r>    12.0376     0.0092    33.9677 </r>
       <r>    12.1057     0.0031    33.9679 </r>
       <r>    12.1738     0.0007    33.9680 </r>
       <r>    12.2420     0.0001    33.9680 </r>
       <r>    12.3101     0.0000    33.9680 </r>
       <r>    12.3782     0.0000    33.9680 </r>
       <r>    12.4463     0.0000    33.9680 </r>
       <r>    12.5144     0.0000    33.9680 </r>
       <r>    12.5825     0.0000    33.9680 </r>
       <r>    12.6506     0.0000    33.9680 </r>
       <r>    12.7187     0.0001    33.9680 </r>
       <r>    12.7868     0.0005    33.9680 </r>
       <r>    12.8549     0.0011    33.9681 </r>
       <r>    12.9230     0.0004    33.9681 </r>
       <r>    12.9911    -0.0049    33.9678 </r>
       <r>    13.0593    -0.0134    33.9669 </r>
       <r>    13.1274    -0.0075    33.9664 </r>
       <r>    13.1955     0.0386    33.9690 </r>
       <r>    13.2636     0.1164    33.9769 </r>
       <r>    13.3317     0.1647    33.9882 </r>
       <r>    13.3998     0.1353    33.9974 </r>
       <r>    13.4679     0.0582    34.0013 </r>
       <r>    13.5360     0.0002    34.0014 </r>
       <r>    13.6041    -0.0144    34.0004 </r>
       <r>    13.6722    -0.0072    33.9999 </r>
       <r>    13.7403    -0.0005    33.9999 </r>
       <r>    13.8085     0.0011    33.9999 </r>
       <r>    13.8766     0.0007    34.0000 </r>
       <r>    13.9447     0.0002    34.0000 </r>
       <r>    14.0128     0.0000    34.0000 </r>
       <r>    14.0809     0.0000    34.0000 </r>
       <r>    14.1490     0.0000    34.0000 </r>
       <r>    14.2171     0.0000    34.0000 </r>
       <r>    14.2852     0.0000    34.0000 </r>
       <r>    14.3533     0.0000    34.0000 </r>
       <r>    14.4214     0.0000    34.0000 </r>
       <r>    14.4895     0.0000    34.0000 </r>
       <r>    14.5576     0.0000    34.0000 </r>
       <r>    14.6258     0.0000    34.0000 </r>
       <r>    14.6939     0.0000    34.0000 </r>
       <r>    14.7620     0.0000    34.0000 </r>
       <r>    14.8301     0.0000    34.0000 </r>
       <r>    14.8982     0.0000    34.0000 </r>
       <r>    14.9663     0.0000    34.0000 </r>
       <r>    15.0344     0.0000    34.0000 </r>
       <r>    15.1025     0.0000    34.0000 </r>
       <r>    15.1706     0.0000    34.0000 </r>
       <r>    15.2387     0.0000    34.0000 </r>
       <r>    15.3068     0.0000    34.0000 </r>
      </set>
     </set>
    </array>
   </total>
  </dos>
 </calculation>
 <structure name="finalpos" >
  <crystal>
   <varray name="basis" >
    <v>      -4.03801237      -0.00000000       4.03801237 </v>
    <v>       0.00000000       4.03801237       4.03801237 </v>
    <v>      -4.03801237       4.03801237      -0.00000000 </v>
   </varray>
   <i name="volume">    131.68397622 </i>
   <varray name="rec_basis" >
    <v>      -0.12382330      -0.12382330       0.12382330 </v>
    <v>       0.12382330       0.12382330       0.12382330 </v>
    <v>      -0.12382330       0.12382330      -0.12382330 </v>
   </varray>
  </crystal>
  <varray name="positions" >
   <v>       0.00175113       0.00000000       0.00000000 </v>
   <v>       0.50000000       0.00000000       0.00000000 </v>
   <v>       0.00000000       0.50000000       0.00000000 </v>
   <v>       0.50000000       0.50000000       0.00000000 </v>
   <v>       0.00000000       0.00000000       0.50000000 </v>
   <v>       0.50000000       0.00000000       0.50000000 </v>
   <v>       0.00000000       0.50000000       0.50000000 </v>
   <v>       0.50000000       0.50000000       0.50000000 </v>
  </varray>
 </structure>
</modeling>
