<?xml version="1.0" encoding="ISO-8859-1"?>
<modeling>
 <generator>
  <i name="program" type="string">vasp </i>
  <i name="version" type="string">5.4.1  </i>
  <i name="subversion" type="string">24Jun15 (build Mar  6 2017 20:45:23) complex                          parallel </i>
  <i name="platform" type="string">IFC91_ompi </i>
  <i name="date" type="string">2017 05 04 </i>
  <i name="time" type="string">10:01:04 </i>
 </generator>
 <incar>
  <i type="string" name="PREC">high</i>
  <i type="string" name="ALGO"> Fast</i>
  <i type="int" name="ISPIN">     1</i>
  <i type="int" name="ICHARG">     2</i>
  <i type="int" name="NELM">   100</i>
  <i name="EDIFF">      0.00010000</i>
  <i type="int" name="ISIF">     3</i>
  <i name="ENCUT">    520.00000000</i>
  <i type="int" name="ISMEAR">     1</i>
  <i name="SIGMA">      0.20000000</i>
  <i type="logical" name="LWAVE"> F  </i>
  <i type="logical" name="LAECHG"> T  </i>
  <v type="int" name="KPOINT_BSE">    -1     0     0     0</v>
  <i type="int" name="NELM">   100</i>
 </incar>
 <kpoints>
  <generation param="Monkhorst-Pack">
   <v type="int" name="divisions">       6        6        6 </v>
   <v name="usershift">      0.00000000       0.00000000       0.00000000 </v>
   <v name="genvec1">      0.16666667       0.00000000       0.00000000 </v>
   <v name="genvec2">      0.00000000       0.16666667       0.00000000 </v>
   <v name="genvec3">      0.00000000       0.00000000       0.16666667 </v>
   <v name="shift">      0.50000000       0.50000000       0.50000000 </v>
  </generation>
  <varray name="kpointlist" >
   <v>       0.08333333       0.08333333       0.08333333 </v>
   <v>       0.25000000       0.08333333       0.08333333 </v>
   <v>       0.41666667       0.08333333       0.08333333 </v>
   <v>       0.25000000       0.25000000       0.08333333 </v>
   <v>       0.41666667       0.25000000       0.08333333 </v>
   <v>       0.41666667       0.41666667       0.08333333 </v>
   <v>       0.25000000       0.25000000       0.25000000 </v>
   <v>       0.41666667       0.25000000       0.25000000 </v>
   <v>       0.41666667       0.41666667       0.25000000 </v>
   <v>       0.41666667       0.41666667       0.41666667 </v>
  </varray>
  <varray name="weights" >
   <v>       0.03703704 </v>
   <v>       0.11111111 </v>
   <v>       0.11111111 </v>
   <v>       0.11111111 </v>
   <v>       0.22222222 </v>
   <v>       0.11111111 </v>
   <v>       0.03703704 </v>
   <v>       0.11111111 </v>
   <v>       0.11111111 </v>
   <v>       0.03703704 </v>
  </varray>
 </kpoints>
 <parameters>
  <separator name="general" >
   <i type="string" name="SYSTEM">unknown system</i>
   <i type="logical" name="LCOMPAT"> F  </i>
  </separator>
  <separator name="electronic" >
   <i type="string" name="PREC">high</i>
   <i name="ENMAX">    520.00000000</i>
   <i name="ENAUG">    291.05200000</i>
   <i name="EDIFF">      0.00010000</i>
   <i type="int" name="IALGO">    68</i>
   <i type="int" name="IWAVPR">    10</i>
   <i type="int" name="NBANDS">    10</i>
   <i name="NELECT">     12.00000000</i>
   <i type="int" name="TURBO">     0</i>
   <i type="int" name="IRESTART">     0</i>
   <i type="int" name="NREBOOT">     0</i>
   <i type="int" name="NMIN">     0</i>
   <i name="EREF">      0.00000000</i>
   <separator name="electronic smearing" >
    <i type="int" name="ISMEAR">     1</i>
    <i name="SIGMA">      0.20000000</i>
    <i name="KSPACING">      0.50000000</i>
    <i type="logical" name="KGAMMA"> T  </i>
   </separator>
   <separator name="electronic projectors" >
    <i type="logical" name="LREAL"> F  </i>
    <v name="ROPT">      0.00000000</v>
    <i type="int" name="LMAXPAW">  -100</i>
    <i type="int" name="LMAXMIX">     2</i>
    <i type="logical" name="NLSPLINE"> F  </i>
   </separator>
   <separator name="electronic startup" >
    <i type="int" name="ISTART">     0</i>
    <i type="int" name="ICHARG">     2</i>
    <i type="int" name="INIWAV">     1</i>
   </separator>
   <separator name="electronic spin" >
    <i type="int" name="ISPIN">     1</i>
    <i type="logical" name="LNONCOLLINEAR"> F  </i>
    <v name="MAGMOM">      1.00000000      1.00000000      1.00000000      1.00000000</v>
    <i name="NUPDOWN">     -1.00000000</i>
    <i type="logical" name="LSORBIT"> F  </i>
    <v name="SAXIS">      0.00000000      0.00000000      1.00000000</v>
    <i type="logical" name="LSPIRAL"> F  </i>
    <v name="QSPIRAL">      0.00000000      0.00000000      0.00000000</v>
    <i type="logical" name="LZEROZ"> F  </i>
   </separator>
   <separator name="electronic exchange-correlation" >
    <i type="logical" name="LASPH"> F  </i>
    <i type="logical" name="LMETAGGA"> F  </i>
   </separator>
   <separator name="electronic convergence" >
    <i type="int" name="NELM">   100</i>
    <i type="int" name="NELMDL">     0</i>
    <i type="int" name="NELMIN">     2</i>
    <i name="ENINI">    520.00000000</i>
    <separator name="electronic convergence detail" >
     <i type="logical" name="LDIAG"> T  </i>
     <i type="logical" name="LSUBROT"> F  </i>
     <i name="WEIMIN">      0.00000000</i>
     <i name="EBREAK">      0.00000250</i>
     <i name="DEPER">      0.30000000</i>
     <i type="int" name="NRMM">     4</i>
     <i name="TIME">      0.40000000</i>
    </separator>
   </separator>
   <separator name="electronic mixer" >
    <i name="AMIX">      0.40000000</i>
    <i name="BMIX">      1.00000000</i>
    <i name="AMIN">      0.10000000</i>
    <i name="AMIX_MAG">      1.60000000</i>
    <i name="BMIX_MAG">      1.00000000</i>
    <separator name="electronic mixer details" >
     <i type="int" name="IMIX">     4</i>
     <i type="logical" name="MIXFIRST"> F  </i>
     <i type="int" name="MAXMIX">   -45</i>
     <i name="WC">    100.00000000</i>
     <i type="int" name="INIMIX">     1</i>
     <i type="int" name="MIXPRE">     1</i>
     <i type="int" name="MREMOVE">     5</i>
    </separator>
   </separator>
   <separator name="electronic dipolcorrection" >
    <i type="logical" name="LDIPOL"> F  </i>
    <i type="logical" name="LMONO"> F  </i>
    <i type="int" name="IDIPOL">     0</i>
    <i name="EPSILON">      1.00000000</i>
    <v name="DIPOL">   -100.00000000   -100.00000000   -100.00000000</v>
    <i name="EFIELD">      0.00000000</i>
   </separator>
  </separator>
  <separator name="grids" >
   <i type="int" name="NGX">    30</i>
   <i type="int" name="NGY">    30</i>
   <i type="int" name="NGZ">    30</i>
   <i type="int" name="NGXF">    30</i>
   <i type="int" name="NGYF">    30</i>
   <i type="int" name="NGZF">    30</i>
   <i type="logical" name="ADDGRID"> F  </i>
  </separator>
  <separator name="ionic" >
   <i type="int" name="NSW">     0</i>
   <i type="int" name="IBRION">    -1</i>
   <i type="int" name="ISIF">     3</i>
   <i name="PSTRESS">      0.00000000</i>
   <i name="EDIFFG">      0.00100000</i>
   <i type="int" name="NFREE">     0</i>
   <i name="POTIM">      0.50000000</i>
   <i name="SMASS">     -3.00000000</i>
   <i name="SCALEE">      1.00000000</i>
  </separator>
  <separator name="ionic md" >
   <i name="TEBEG">      0.00010000</i>
   <i name="TEEND">      0.00010000</i>
   <i type="int" name="NBLOCK">     1</i>
   <i type="int" name="KBLOCK">     1</i>
   <i type="int" name="NPACO">   256</i>
   <i name="APACO">     16.00000000</i>
  </separator>
  <separator name="symmetry" >
   <i type="int" name="ISYM">     2</i>
   <i name="SYMPREC">      0.00001000</i>
  </separator>
  <separator name="dos" >
   <i type="logical" name="LORBIT"> T  </i>
   <v name="RWIGS">     -1.00000000</v>
   <i type="int" name="NEDOS">   301</i>
   <i name="EMIN">     10.00000000</i>
   <i name="EMAX">    -10.00000000</i>
   <i name="EFERMI">      0.00000000</i>
  </separator>
  <separator name="writing" >
   <i type="int" name="NWRITE">     2</i>
   <i type="logical" name="LWAVE"> F  </i>
   <i type="logical" name="LCHARG"> T  </i>
   <i type="logical" name="LPARD"> F  </i>
   <i type="logical" name="LVTOT"> F  </i>
   <i type="logical" name="LVHAR"> F  </i>
   <i type="logical" name="LELF"> F  </i>
   <i type="logical" name="LOPTICS"> F  </i>
   <v name="STM">      0.00000000      0.00000000      0.00000000      0.00000000      0.00000000      0.00000000      0.00000000</v>
  </separator>
  <separator name="performance" >
   <i type="int" name="NPAR">     1</i>
   <i type="int" name="NSIM">     4</i>
   <i type="int" name="NBLK">    -1</i>
   <i type="logical" name="LPLANE"> T  </i>
   <i type="logical" name="LSCALAPACK"> T  </i>
   <i type="logical" name="LSCAAWARE"> F  </i>
   <i type="logical" name="LSCALU"> F  </i>
   <i type="logical" name="LASYNC"> F  </i>
   <i type="logical" name="LORBITALREAL"> F  </i>
  </separator>
  <separator name="miscellaneous" >
   <i type="int" name="IDIOT">     3</i>
   <i type="logical" name="LMUSIC"> F  </i>
   <v name="POMASS">     26.98100000</v>
   <v name="DARWINR">      0.00000000</v>
   <v name="DARWINV">      1.00000000</v>
   <i type="logical" name="LCORR"> T  </i>
  </separator>
  <i type="logical" name="GGA_COMPAT"> T  </i>
  <i type="logical" name="LBERRY"> F  </i>
  <i type="int" name="ICORELEVEL">     0</i>
  <i type="logical" name="LDAU"> F  </i>
  <i type="int" name="I_CONSTRAINED_M">     0</i>
  <separator name="electronic exchange-correlation" >
   <i type="string" name="GGA">--</i>
   <i type="int" name="VOSKOWN">     0</i>
   <i type="logical" name="LHFCALC"> F  </i>
   <i type="string" name="PRECFOCK"></i>
   <i type="logical" name="LSYMGRAD"> F  </i>
   <i type="logical" name="LHFONE"> F  </i>
   <i type="logical" name="LRHFCALC"> F  </i>
   <i type="logical" name="LTHOMAS"> F  </i>
   <i type="logical" name="LMODELHF"> F  </i>
   <i name="ENCUT4O">     -1.00000000</i>
   <i type="int" name="EXXOEP">     0</i>
   <i type="int" name="FOURORBIT">     0</i>
   <i name="AEXX">      0.00000000</i>
   <i name="HFALPHA">      0.00000000</i>
   <i name="MCALPHA">      0.00000000</i>
   <i name="ALDAX">      1.00000000</i>
   <i name="AGGAX">      1.00000000</i>
   <i name="ALDAC">      1.00000000</i>
   <i name="AGGAC">      1.00000000</i>
   <i type="int" name="NKREDX">     1</i>
   <i type="int" name="NKREDY">     1</i>
   <i type="int" name="NKREDZ">     1</i>
   <i type="logical" name="SHIFTRED"> F  </i>
   <i type="logical" name="ODDONLY"> F  </i>
   <i type="logical" name="EVENONLY"> F  </i>
   <i type="int" name="LMAXFOCK">     0</i>
   <i type="int" name="NMAXFOCKAE">     0</i>
   <i type="logical" name="LFOCKAEDFT"> F  </i>
   <i name="HFSCREEN">      0.00000000</i>
   <i name="HFSCREENC">      0.00000000</i>
   <i type="int" name="NBANDSGWLOW">     0</i>
  </separator>
  <separator name="vdW DFT" >
   <i type="logical" name="LUSE_VDW"> F  </i>
   <i name="Zab_VDW">     -0.84910000</i>
   <i name="PARAM1">      0.12340000</i>
   <i name="PARAM2">      1.00000000</i>
   <i name="PARAM3">      0.00000000</i>
  </separator>
  <separator name="model GW" >
   <i type="int" name="MODEL_GW">     0</i>
   <i name="MODEL_EPS0">      9.88303283</i>
   <i name="MODEL_ALPHA">      1.00000000</i>
  </separator>
  <separator name="linear response parameters" >
   <i type="logical" name="LEPSILON"> F  </i>
   <i type="logical" name="LRPA"> F  </i>
   <i type="logical" name="LNABLA"> F  </i>
   <i type="logical" name="LVEL"> F  </i>
   <i type="int" name="KINTER">     0</i>
   <i name="CSHIFT">      0.10000000</i>
   <i name="OMEGAMAX">     -1.00000000</i>
   <i name="DEG_THRESHOLD">      0.00200000</i>
  </separator>
  <separator name="orbital magnetization" >
   <i type="logical" name="NUCIND"> F  </i>
   <v name="MAGPOS">      0.00000000      0.00000000      0.00000000</v>
   <i type="logical" name="LNICSALL"> T  </i>
   <i type="logical" name="ORBITALMAG"> F  </i>
   <i type="logical" name="LMAGBLOCH"> F  </i>
   <i type="logical" name="LCHIMAG"> F  </i>
   <i type="logical" name="LGAUGE"> T  </i>
   <i type="int" name="MAGATOM">     0</i>
   <v name="MAGDIPOL">      0.00000000      0.00000000      0.00000000</v>
   <v name="AVECCONST">      0.00000000      0.00000000      0.00000000</v>
  </separator>
  <separator name="response functions" >
   <i type="logical" name="LADDER"> F  </i>
   <i type="logical" name="LFXC"> F  </i>
   <i type="logical" name="LHARTREE"> T  </i>
   <i type="int" name="IBSE">     0</i>
   <v type="int" name="KPOINT">    -1     0     0     0</v>
   <i type="logical" name="LTCTE"> F  </i>
   <i type="logical" name="LTETE"> F  </i>
   <i type="logical" name="LTRIPLET"> F  </i>
   <i type="logical" name="LFXCEPS"> F  </i>
   <i type="logical" name="LFXHEG"> F  </i>
   <i type="int" name="NATURALO">     0</i>
   <i type="logical" name="L2ORDER"> F  </i>
   <i type="logical" name="LUSEW"> F  </i>
   <i name="ENCUTGW">     -2.00000000</i>
   <i name="ENCUTGWSOFT">     -2.00000000</i>
   <i name="ENCUTLF">     -1.00000000</i>
   <i type="int" name="LMAXMP2">    -1</i>
   <i name="SCISSOR">      0.00000000</i>
   <i type="int" name="NOMEGA">     0</i>
   <i type="int" name="NOMEGAR">     0</i>
   <i type="int" name="NBANDSGW">    -1</i>
   <i type="int" name="NBANDSO">    -1</i>
   <i type="int" name="NBANDSV">    -1</i>
   <i type="int" name="NELM">   100</i>
   <i type="int" name="NELMHF">     1</i>
   <i type="int" name="DIM">     3</i>
   <i type="int" name="ANTIRES">     0</i>
   <i name="OMEGAMAX">    -30.00000000</i>
   <i name="OMEGAMIN">    -30.00000000</i>
   <i name="OMEGATL">   -200.00000000</i>
   <i type="int" name="OMEGAGRID">     0</i>
   <i name="CSHIFT">     -0.10000000</i>
   <i type="logical" name="SELFENERGY"> F  </i>
   <i type="logical" name="LSPECTRAL"> F  </i>
   <i type="logical" name="LSPECTRALGW"> F  </i>
   <i type="logical" name="LSINGLES"> F  </i>
   <i type="logical" name="LFERMIGW"> F  </i>
   <i type="logical" name="ODDONLYGW"> F  </i>
   <i type="logical" name="EVENONLYGW"> F  </i>
   <i type="int" name="NKREDLFX">     1</i>
   <i type="int" name="NKREDLFY">     1</i>
   <i type="int" name="NKREDLFZ">     1</i>
   <i type="int" name="MAXMEM">  1800</i>
   <i type="int" name="TELESCOPE">     0</i>
   <i type="int" name="TAUPAR">     1</i>
   <i type="int" name="OMEGAPAR">    -1</i>
   <i name="LAMBDA">      1.00000000</i>
  </separator>
  <separator name="External order field" >
   <i name="OFIELD_KAPPA">      0.00000000</i>
   <v name="OFIELD_K">      0.00000000      0.00000000      0.00000000</v>
   <i name="OFIELD_Q6_NEAR">      0.00000000</i>
   <i name="OFIELD_Q6_FAR">      0.00000000</i>
   <i name="OFIELD_A">      0.00000000</i>
  </separator>
 </parameters>
 <atominfo>
  <atoms>       4 </atoms>
  <types>       1 </types>
  <array name="atoms" >
   <dimension dim="1">ion</dimension>
   <field type="string">element</field>
   <field type="int">atomtype</field>
   <set>
    <rc><c>Al</c><c>   1</c></rc>
    <rc><c>Al</c><c>   1</c></rc>
    <rc><c>Al</c><c>   1</c></rc>
    <rc><c>Al</c><c>   1</c></rc>
   </set>
  </array>
  <array name="atomtypes" >
   <dimension dim="1">type</dimension>
   <field type="int">atomspertype</field>
   <field type="string">element</field>
   <field>mass</field>
   <field>valence</field>
   <field type="string">pseudopotential</field>
   <set>
    <rc><c>   4</c><c>Al</c><c>     26.98100000</c><c>      3.00000000</c><c>  PAW_PBE Al 04Jan2001                  </c></rc>
   </set>
  </array>
 </atominfo>
 <structure name="initialpos" >
  <crystal>
   <varray name="basis" >
    <v>       4.03893000       0.00000000       0.00000000 </v>
    <v>       0.00000000       4.03893000       0.00000000 </v>
    <v>       0.00000000       0.00000000       4.03893000 </v>
   </varray>
   <i name="volume">     65.88688554 </i>
   <varray name="rec_basis" >
    <v>       0.24759033       0.00000000       0.00000000 </v>
    <v>       0.00000000       0.24759033       0.00000000 </v>
    <v>       0.00000000       0.00000000       0.24759033 </v>
   </varray>
  </crystal>
  <varray name="positions" >
   <v>       0.00000000       0.00000000       0.00000000 </v>
   <v>       0.00000000       0.50000000       0.50000000 </v>
   <v>       0.50000000       0.00000000       0.50000000 </v>
   <v>       0.50000000       0.50000000       0.00000000 </v>
  </varray>
 </structure>
 <calculation>
  <scstep>
   <time name="dav">    0.44    0.45</time>
   <time name="total">    0.48    0.48</time>
   <energy>
    <i name="alphaZ">     -0.81565486 </i>
    <i name="ewald">   -294.23107051 </i>
    <i name="hartreedc">     -0.40304713 </i>
    <i name="XCdc">   -104.94719715 </i>
    <i name="pawpsdc">    264.80062850 </i>
    <i name="pawaedc">   -136.98248303 </i>
    <i name="eentropy">     -0.00200646 </i>
    <i name="bandstr">     68.76711911 </i>
    <i name="atom">    214.15382826 </i>
    <i name="e_fr_energy">     10.34011673 </i>
    <i name="e_wo_entrp">     10.34212319 </i>
    <i name="e_0_energy">     10.34078555 </i>
   </energy>
  </scstep>
  <scstep>
   <time name="dav">    0.51    0.51</time>
   <time name="total">    0.51    0.51</time>
   <energy>
    <i name="e_fr_energy">    -14.33520705 </i>
    <i name="e_wo_entrp">    -14.33691998 </i>
    <i name="e_0_energy">    -14.33577803 </i>
   </energy>
  </scstep>
  <scstep>
   <time name="dav">    0.51    0.51</time>
   <time name="total">    0.51    0.51</time>
   <energy>
    <i name="e_fr_energy">    -15.03839735 </i>
    <i name="e_wo_entrp">    -15.03720627 </i>
    <i name="e_0_energy">    -15.03800033 </i>
   </energy>
  </scstep>
  <scstep>
   <time name="dav">    0.48    0.48</time>
   <time name="total">    0.48    0.48</time>
   <energy>
    <i name="e_fr_energy">    -15.04437285 </i>
    <i name="e_wo_entrp">    -15.04316556 </i>
    <i name="e_0_energy">    -15.04397042 </i>
   </energy>
  </scstep>
  <scstep>
   <time name="dav">    0.53    0.53</time>
   <time name="total">    0.63    0.63</time>
   <energy>
    <i name="e_fr_energy">    -15.04441224 </i>
    <i name="e_wo_entrp">    -15.04320500 </i>
    <i name="e_0_energy">    -15.04400983 </i>
   </energy>
  </scstep>
  <scstep>
   <time name="diag">    0.11    0.11</time>
   <time name="diis">    0.38    0.38</time>
   <time name="orth">    0.01    0.01</time>
   <time name="total">    0.61    0.61</time>
   <energy>
    <i name="e_fr_energy">    -14.99274152 </i>
    <i name="e_wo_entrp">    -14.99174728 </i>
    <i name="e_0_energy">    -14.99241011 </i>
   </energy>
  </scstep>
  <scstep>
   <time name="diag">    0.10    0.10</time>
   <time name="diis">    0.38    0.38</time>
   <time name="orth">    0.01    0.01</time>
   <time name="total">    0.61    0.61</time>
   <energy>
    <i name="e_fr_energy">    -14.95485063 </i>
    <i name="e_wo_entrp">    -14.95409538 </i>
    <i name="e_0_energy">    -14.95459888 </i>
   </energy>
  </scstep>
  <scstep>
   <time name="diag">    0.10    0.10</time>
   <time name="diis">    0.29    0.29</time>
   <time name="orth">    0.01    0.01</time>
   <time name="total">    0.43    0.43</time>
   <energy>
    <i name="alphaZ">     -0.81565486 </i>
    <i name="ewald">   -294.23107051 </i>
    <i name="hartreedc">     -0.42748870 </i>
    <i name="XCdc">   -104.50629694 </i>
    <i name="pawpsdc">    568.33034823 </i>
    <i name="pawaedc">   -440.56347963 </i>
    <i name="eentropy">     -0.00075996 </i>
    <i name="bandstr">     43.10580607 </i>
    <i name="atom">    214.15382826 </i>
    <i name="e_fr_energy">    -14.95476806 </i>
    <i name="e_wo_entrp">    -14.95400809 </i>
    <i name="e_0_energy">    -14.95451474 </i>
   </energy>
  </scstep>
  <structure>
   <crystal>
    <varray name="basis" >
     <v>       4.03893000       0.00000000       0.00000000 </v>
     <v>       0.00000000       4.03893000       0.00000000 </v>
     <v>       0.00000000       0.00000000       4.03893000 </v>
    </varray>
    <i name="volume">     65.88688554 </i>
    <varray name="rec_basis" >
     <v>       0.24759033       0.00000000       0.00000000 </v>
     <v>       0.00000000       0.24759033       0.00000000 </v>
     <v>       0.00000000       0.00000000       0.24759033 </v>
    </varray>
   </crystal>
   <varray name="positions" >
    <v>       0.00000000       0.00000000       0.00000000 </v>
    <v>       0.00000000       0.50000000       0.50000000 </v>
    <v>       0.50000000       0.00000000       0.50000000 </v>
    <v>       0.50000000       0.50000000       0.00000000 </v>
   </varray>
  </structure>
  <varray name="forces" >
   <v>       0.00000000      -0.00000000      -0.00000000 </v>
   <v>      -0.00000000       0.00000000      -0.00000000 </v>
   <v>      -0.00000000      -0.00000000       0.00000000 </v>
   <v>       0.00000000      -0.00000000       0.00000000 </v>
  </varray>
  <varray name="stress" >
   <v>       0.13253594      -0.00000000      -0.00000000 </v>
   <v>       0.00000000       0.13253594      -0.00000000 </v>
   <v>       0.00000000      -0.00000000       0.13253594 </v>
  </varray>
  <energy>
   <i name="e_fr_energy">    -14.95476806 </i>
   <i name="e_wo_entrp">    -14.95451474 </i>
   <i name="e_0_energy">     -0.00075996 </i>
  </energy>
  <time name="totalsc">    4.85    4.85</time>
  <eigenvalues>
   <array>
    <dimension dim="1">band</dimension>
    <dimension dim="2">kpoint</dimension>
    <dimension dim="3">spin</dimension>
    <field>eigene</field>
    <field>occ</field>
    <set>
     <set comment="spin 1">
      <set comment="kpoint 1">
       <r>   -2.9388    1.0000 </r>
       <r>    4.3408    1.0000 </r>
       <r>    4.3408    1.0000 </r>
       <r>    4.3408    1.0000 </r>
       <r>    7.5125    1.0076 </r>
       <r>    7.5125    1.0076 </r>
       <r>    7.5125    1.0076 </r>
       <r>   11.3088   -0.0000 </r>
       <r>   11.3088   -0.0000 </r>
       <r>   11.3088   -0.0000 </r>
      </set>
      <set comment="kpoint 2">
       <r>   -2.4361    1.0000 </r>
       <r>    2.0020    1.0000 </r>
       <r>    4.8136    1.0000 </r>
       <r>    4.8136    1.0000 </r>
       <r>    7.9619    0.3110 </r>
       <r>    7.9619    0.3110 </r>
       <r>    9.0868   -0.0000 </r>
       <r>    9.0868   -0.0000 </r>
       <r>   10.7085   -0.0000 </r>
       <r>   11.7860   -0.0000 </r>
      </set>
      <set comment="kpoint 3">
       <r>   -1.4362    1.0000 </r>
       <r>    0.0499    1.0000 </r>
       <r>    5.7514    1.0000 </r>
       <r>    5.7514    1.0000 </r>
       <r>    7.1684    1.0000 </r>
       <r>    7.1684    1.0000 </r>
       <r>    8.9254   -0.0000 </r>
       <r>    8.9254   -0.0000 </r>
       <r>   10.4897   -0.0000 </r>
       <r>   10.4897   -0.0000 </r>
      </set>
      <set comment="kpoint 4">
       <r>   -1.9353    1.0000 </r>
       <r>    2.4870    1.0000 </r>
       <r>    2.4870    1.0000 </r>
       <r>    5.2806    1.0000 </r>
       <r>    6.7752    1.0000 </r>
       <r>    8.5209   -0.0001 </r>
       <r>    9.4980   -0.0000 </r>
       <r>    9.4980   -0.0000 </r>
       <r>   11.1869   -0.0000 </r>
       <r>   11.1869   -0.0000 </r>
      </set>
      <set comment="kpoint 5">
       <r>   -0.9389    1.0000 </r>
       <r>    0.5421    1.0000 </r>
       <r>    3.4517    1.0000 </r>
       <r>    4.8794    1.0000 </r>
       <r>    6.2475    1.0000 </r>
       <r>    7.6474    1.0336 </r>
       <r>    9.4479   -0.0000 </r>
       <r>   10.4414   -0.0000 </r>
       <r>   10.8016   -0.0000 </r>
       <r>   11.8342   -0.0000 </r>
      </set>
      <set comment="kpoint 6">
       <r>    0.0506    1.0000 </r>
       <r>    1.5213    1.0000 </r>
       <r>    1.5213    1.0000 </r>
       <r>    2.9764    1.0000 </r>
       <r>    7.1817    1.0000 </r>
       <r>    8.5859   -0.0000 </r>
       <r>    8.5859   -0.0000 </r>
       <r>    9.9858   -0.0000 </r>
       <r>   10.3927   -0.0000 </r>
       <r>   11.7749   -0.0000 </r>
      </set>
      <set comment="kpoint 7">
       <r>   -1.4362    1.0000 </r>
       <r>    2.9701    1.0000 </r>
       <r>    2.9701    1.0000 </r>
       <r>    2.9701    1.0000 </r>
       <r>    7.2623    1.0000 </r>
       <r>    7.2623    1.0000 </r>
       <r>    7.2623    1.0000 </r>
       <r>   11.4620   -0.0000 </r>
       <r>   11.6804   -0.0000 </r>
       <r>   11.6804   -0.0000 </r>
      </set>
      <set comment="kpoint 8">
       <r>   -0.4432    1.0000 </r>
       <r>    1.0326    1.0000 </r>
       <r>    3.9267    1.0000 </r>
       <r>    3.9267    1.0000 </r>
       <r>    5.3858    1.0000 </r>
       <r>    5.3858    1.0000 </r>
       <r>    8.2073   -0.0295 </r>
       <r>    9.6130   -0.0000 </r>
       <r>   12.5740   -0.0000 </r>
       <r>   12.5740   -0.0000 </r>
      </set>
      <set comment="kpoint 9">
       <r>    0.5429    1.0000 </r>
       <r>    2.0085    1.0000 </r>
       <r>    2.0085    1.0000 </r>
       <r>    3.4543    1.0000 </r>
       <r>    4.9095    1.0000 </r>
       <r>    6.3307    1.0000 </r>
       <r>    6.3307    1.0000 </r>
       <r>    7.7480    0.9995 </r>
       <r>   13.5118    0.0000 </r>
       <r>   14.8197    0.0000 </r>
      </set>
      <set comment="kpoint 10">
       <r>    1.5224    1.0000 </r>
       <r>    2.9744    1.0000 </r>
       <r>    2.9744    1.0000 </r>
       <r>    2.9744    1.0000 </r>
       <r>    4.4374    1.0000 </r>
       <r>    4.4374    1.0000 </r>
       <r>    4.4374    1.0000 </r>
       <r>    5.8650    1.0000 </r>
       <r>   17.0295    0.0000 </r>
       <r>   17.0295    0.0000 </r>
      </set>
     </set>
    </set>
   </array>
  </eigenvalues>
  <separator name="orbital magnetization" >
   <v name="MAGDIPOLOUT">      0.00000000      0.00000000      0.00000000</v>
  </separator>
  <dos>
   <i name="efermi">      7.91594264 </i>
   <total>
    <array>
     <dimension dim="1">gridpoints</dimension>
     <dimension dim="2">spin</dimension>
     <field>energy</field>
     <field>total</field>
     <field>integrated</field>
     <set>
      <set comment="spin 1">
       <r>    -4.9388     0.0000     0.0000 </r>
       <r>    -4.8589     0.0000     0.0000 </r>
       <r>    -4.7790     0.0000     0.0000 </r>
       <r>    -4.6991     0.0000     0.0000 </r>
       <r>    -4.6192     0.0000     0.0000 </r>
       <r>    -4.5393    -0.0000    -0.0000 </r>
       <r>    -4.4594    -0.0000    -0.0000 </r>
       <r>    -4.3795    -0.0000    -0.0000 </r>
       <r>    -4.2996    -0.0000    -0.0000 </r>
       <r>    -4.2197    -0.0000    -0.0000 </r>
       <r>    -4.1398    -0.0000    -0.0000 </r>
       <r>    -4.0599    -0.0000    -0.0000 </r>
       <r>    -3.9800    -0.0000    -0.0000 </r>
       <r>    -3.9001    -0.0000    -0.0000 </r>
       <r>    -3.8202    -0.0000    -0.0000 </r>
       <r>    -3.7403    -0.0000    -0.0000 </r>
       <r>    -3.6604    -0.0000    -0.0000 </r>
       <r>    -3.5806    -0.0000    -0.0000 </r>
       <r>    -3.5007    -0.0002    -0.0000 </r>
       <r>    -3.4208    -0.0013    -0.0001 </r>
       <r>    -3.3409    -0.0056    -0.0006 </r>
       <r>    -3.2610    -0.0137    -0.0017 </r>
       <r>    -3.1811    -0.0119    -0.0026 </r>
       <r>    -3.1012     0.0392     0.0005 </r>
       <r>    -3.0213     0.1616     0.0134 </r>
       <r>    -2.9414     0.2824     0.0360 </r>
       <r>    -2.8615     0.2782     0.0582 </r>
       <r>    -2.7816     0.1376     0.0692 </r>
       <r>    -2.7017    -0.0010     0.0691 </r>
       <r>    -2.6218     0.0395     0.0723 </r>
       <r>    -2.5419     0.3482     0.1001 </r>
       <r>    -2.4620     0.7629     0.1610 </r>
       <r>    -2.3821     0.9031     0.2332 </r>
       <r>    -2.3022     0.6107     0.2820 </r>
       <r>    -2.2224     0.1804     0.2964 </r>
       <r>    -2.1425     0.0003     0.2964 </r>
       <r>    -2.0626     0.2104     0.3132 </r>
       <r>    -1.9827     0.6451     0.3648 </r>
       <r>    -1.9028     0.9034     0.4369 </r>
       <r>    -1.8229     0.7127     0.4939 </r>
       <r>    -1.7430     0.2689     0.5154 </r>
       <r>    -1.6631     0.0052     0.5158 </r>
       <r>    -1.5832     0.1843     0.5305 </r>
       <r>    -1.5033     0.7255     0.5885 </r>
       <r>    -1.4234     1.1724     0.6821 </r>
       <r>    -1.3435     1.0610     0.7669 </r>
       <r>    -1.2636     0.4939     0.8064 </r>
       <r>    -1.1837     0.0392     0.8095 </r>
       <r>    -1.1038     0.1631     0.8225 </r>
       <r>    -1.0239     0.8930     0.8939 </r>
       <r>    -0.9440     1.6721     1.0275 </r>
       <r>    -0.8642     1.7350     1.1661 </r>
       <r>    -0.7843     1.0198     1.2476 </r>
       <r>    -0.7044     0.2450     1.2671 </r>
       <r>    -0.6245     0.0022     1.2673 </r>
       <r>    -0.5446     0.2985     1.2912 </r>
       <r>    -0.4647     0.7474     1.3509 </r>
       <r>    -0.3848     0.8781     1.4210 </r>
       <r>    -0.3049     0.5516     1.4651 </r>
       <r>    -0.2250     0.1132     1.4741 </r>
       <r>    -0.1451     0.0443     1.4777 </r>
       <r>    -0.0652     0.5808     1.5241 </r>
       <r>     0.0147     1.4277     1.6382 </r>
       <r>     0.0946     1.8082     1.7826 </r>
       <r>     0.1745     1.2919     1.8858 </r>
       <r>     0.2544     0.4005     1.9178 </r>
       <r>     0.3343     0.0332     1.9205 </r>
       <r>     0.4142     0.6649     1.9736 </r>
       <r>     0.4940     1.9426     2.1288 </r>
       <r>     0.5739     2.7284     2.3468 </r>
       <r>     0.6538     2.2113     2.5235 </r>
       <r>     0.7337     0.9549     2.5998 </r>
       <r>     0.8136     0.0976     2.6076 </r>
       <r>     0.8935     0.0636     2.6126 </r>
       <r>     0.9734     0.5126     2.6536 </r>
       <r>     1.0533     0.8621     2.7225 </r>
       <r>     1.1332     0.7376     2.7814 </r>
       <r>     1.2131     0.2840     2.8041 </r>
       <r>     1.2930     0.0079     2.8047 </r>
       <r>     1.3729     0.3463     2.8324 </r>
       <r>     1.4528     1.2695     2.9338 </r>
       <r>     1.5327     2.0488     3.0975 </r>
       <r>     1.6126     1.8704     3.2469 </r>
       <r>     1.6925     0.8952     3.3185 </r>
       <r>     1.7724     0.1240     3.3284 </r>
       <r>     1.8522     0.3461     3.3560 </r>
       <r>     1.9321     1.5009     3.4759 </r>
       <r>     2.0120     2.5874     3.6827 </r>
       <r>     2.0919     2.4899     3.8816 </r>
       <r>     2.1718     1.3200     3.9870 </r>
       <r>     2.2517     0.2627     4.0080 </r>
       <r>     2.3316     0.1712     4.0217 </r>
       <r>     2.4115     0.9247     4.0956 </r>
       <r>     2.4914     1.6880     4.2304 </r>
       <r>     2.5713     1.6372     4.3612 </r>
       <r>     2.6512     0.8272     4.4273 </r>
       <r>     2.7311     0.1159     4.4366 </r>
       <r>     2.8110     0.2772     4.4587 </r>
       <r>     2.8909     1.3703     4.5682 </r>
       <r>     2.9708     2.5166     4.7693 </r>
       <r>     3.0507     2.5514     4.9731 </r>
       <r>     3.1306     1.4212     5.0867 </r>
       <r>     3.2104     0.3037     5.1109 </r>
       <r>     3.2903     0.2609     5.1318 </r>
       <r>     3.3702     1.3311     5.2381 </r>
       <r>     3.4501     2.5024     5.4380 </r>
       <r>     3.5300     2.5567     5.6423 </r>
       <r>     3.6099     1.4514     5.7583 </r>
       <r>     3.6898     0.3421     5.7856 </r>
       <r>     3.7697     0.1768     5.7997 </r>
       <r>     3.8496     0.8987     5.8715 </r>
       <r>     3.9295     1.6689     6.0049 </r>
       <r>     4.0094     1.6453     6.1363 </r>
       <r>     4.0893     0.8932     6.2077 </r>
       <r>     4.1692     0.2755     6.2297 </r>
       <r>     4.2491     0.4065     6.2622 </r>
       <r>     4.3290     1.0817     6.3486 </r>
       <r>     4.4089     1.5717     6.4742 </r>
       <r>     4.4888     1.3380     6.5811 </r>
       <r>     4.5687     0.6212     6.6307 </r>
       <r>     4.6485     0.3376     6.6577 </r>
       <r>     4.7284     1.2753     6.7596 </r>
       <r>     4.8083     3.1008     7.0073 </r>
       <r>     4.8882     4.2548     7.3472 </r>
       <r>     4.9681     3.5559     7.6313 </r>
       <r>     5.0480     1.7078     7.7678 </r>
       <r>     5.1279     0.4089     7.8004 </r>
       <r>     5.2078     0.4987     7.8403 </r>
       <r>     5.2877     1.5108     7.9610 </r>
       <r>     5.3676     2.3360     8.1476 </r>
       <r>     5.4475     2.1554     8.3198 </r>
       <r>     5.5274     1.2464     8.4194 </r>
       <r>     5.6073     0.7086     8.4760 </r>
       <r>     5.6872     1.1189     8.5654 </r>
       <r>     5.7671     1.8130     8.7102 </r>
       <r>     5.8470     1.7991     8.8540 </r>
       <r>     5.9269     1.0043     8.9342 </r>
       <r>     6.0067     0.2006     8.9502 </r>
       <r>     6.0866     0.1507     8.9623 </r>
       <r>     6.1665     1.1322     9.0528 </r>
       <r>     6.2464     2.6268     9.2626 </r>
       <r>     6.3263     3.4080     9.5349 </r>
       <r>     6.4062     2.7306     9.7531 </r>
       <r>     6.4861     1.2600     9.8537 </r>
       <r>     6.5660     0.2199     9.8713 </r>
       <r>     6.6459     0.0991     9.8792 </r>
       <r>     6.7258     0.5143     9.9203 </r>
       <r>     6.8057     0.7837     9.9829 </r>
       <r>     6.8856     0.5724    10.0286 </r>
       <r>     6.9655     0.3069    10.0532 </r>
       <r>     7.0454     0.7970    10.1168 </r>
       <r>     7.1253     2.1525    10.2888 </r>
       <r>     7.2052     3.2740    10.5504 </r>
       <r>     7.2851     3.0381    10.7931 </r>
       <r>     7.3649     1.8265    10.9390 </r>
       <r>     7.4448     1.0295    11.0213 </r>
       <r>     7.5247     1.3302    11.1276 </r>
       <r>     7.6046     2.1983    11.3032 </r>
       <r>     7.6845     2.6971    11.5187 </r>
       <r>     7.7644     2.4479    11.7143 </r>
       <r>     7.8443     1.9560    11.8705 </r>
       <r>     7.9242     1.8101    12.0151 </r>
       <r>     8.0041     1.8139    12.1601 </r>
       <r>     8.0840     1.5483    12.2838 </r>
       <r>     8.1639     1.1445    12.3752 </r>
       <r>     8.2438     0.8135    12.4402 </r>
       <r>     8.3237     0.5561    12.4846 </r>
       <r>     8.4036     0.6708    12.5382 </r>
       <r>     8.4835     1.4697    12.6556 </r>
       <r>     8.5634     2.3768    12.8455 </r>
       <r>     8.6433     2.3687    13.0348 </r>
       <r>     8.7231     1.4847    13.1534 </r>
       <r>     8.8030     0.9053    13.2257 </r>
       <r>     8.8829     1.3427    13.3330 </r>
       <r>     8.9628     2.2530    13.5130 </r>
       <r>     9.0427     2.7111    13.7296 </r>
       <r>     9.1226     2.3017    13.9135 </r>
       <r>     9.2025     1.3145    14.0185 </r>
       <r>     9.2824     0.6909    14.0737 </r>
       <r>     9.3623     1.3333    14.1802 </r>
       <r>     9.4422     2.9221    14.4137 </r>
       <r>     9.5221     3.9455    14.7289 </r>
       <r>     9.6020     3.4038    15.0009 </r>
       <r>     9.6819     1.8779    15.1509 </r>
       <r>     9.7618     0.5910    15.1981 </r>
       <r>     9.8417     0.1721    15.2119 </r>
       <r>     9.9216     0.4438    15.2473 </r>
       <r>    10.0015     0.7752    15.3093 </r>
       <r>    10.0813     0.6512    15.3613 </r>
       <r>    10.1612     0.2069    15.3778 </r>
       <r>    10.2411     0.1825    15.3924 </r>
       <r>    10.3210     1.2482    15.4921 </r>
       <r>    10.4009     3.0808    15.7383 </r>
       <r>    10.4808     4.2269    16.0760 </r>
       <r>    10.5607     3.7430    16.3750 </r>
       <r>    10.6406     2.5942    16.5823 </r>
       <r>    10.7205     2.1858    16.7569 </r>
       <r>    10.8004     2.3098    16.9414 </r>
       <r>    10.8803     1.9020    17.0934 </r>
       <r>    10.9602     0.9619    17.1702 </r>
       <r>    11.0401     0.5040    17.2105 </r>
       <r>    11.1200     1.0630    17.2954 </r>
       <r>    11.1999     2.0146    17.4564 </r>
       <r>    11.2798     2.3613    17.6450 </r>
       <r>    11.3597     1.8319    17.7914 </r>
       <r>    11.4395     0.9533    17.8676 </r>
       <r>    11.5194     0.3671    17.8969 </r>
       <r>    11.5993     0.5241    17.9388 </r>
       <r>    11.6792     1.6282    18.0688 </r>
       <r>    11.7591     3.1701    18.3221 </r>
       <r>    11.8390     3.8752    18.6317 </r>
       <r>    11.9189     3.0013    18.8715 </r>
       <r>    11.9988     1.3417    18.9787 </r>
       <r>    12.0787     0.1643    18.9918 </r>
       <r>    12.1586    -0.2070    18.9753 </r>
       <r>    12.2385    -0.2051    18.9589 </r>
       <r>    12.3184    -0.1322    18.9483 </r>
       <r>    12.3983     0.1428    18.9597 </r>
       <r>    12.4782     0.8275    19.0259 </r>
       <r>    12.5581     1.6197    19.1553 </r>
       <r>    12.6380     1.7975    19.2989 </r>
       <r>    12.7179     1.1715    19.3925 </r>
       <r>    12.7977     0.3733    19.4223 </r>
       <r>    12.8776    -0.0369    19.4193 </r>
       <r>    12.9575    -0.0926    19.4119 </r>
       <r>    13.0374    -0.0482    19.4081 </r>
       <r>    13.1173    -0.0304    19.4057 </r>
       <r>    13.1972    -0.0454    19.4020 </r>
       <r>    13.2771    -0.0300    19.3996 </r>
       <r>    13.3570     0.1445    19.4112 </r>
       <r>    13.4369     0.5271    19.4533 </r>
       <r>    13.5168     0.8756    19.5232 </r>
       <r>    13.5967     0.8474    19.5909 </r>
       <r>    13.6766     0.4729    19.6287 </r>
       <r>    13.7565     0.1099    19.6375 </r>
       <r>    13.8364    -0.0374    19.6345 </r>
       <r>    13.9163    -0.0405    19.6313 </r>
       <r>    13.9962    -0.0161    19.6300 </r>
       <r>    14.0761    -0.0039    19.6297 </r>
       <r>    14.1559    -0.0006    19.6296 </r>
       <r>    14.2358    -0.0004    19.6296 </r>
       <r>    14.3157    -0.0025    19.6294 </r>
       <r>    14.3956    -0.0118    19.6284 </r>
       <r>    14.4755    -0.0343    19.6257 </r>
       <r>    14.5554    -0.0461    19.6220 </r>
       <r>    14.6353     0.0533    19.6263 </r>
       <r>    14.7152     0.3693    19.6558 </r>
       <r>    14.7951     0.7758    19.7178 </r>
       <r>    14.8750     0.9112    19.7906 </r>
       <r>    14.9549     0.6312    19.8410 </r>
       <r>    15.0348     0.2229    19.8588 </r>
       <r>    15.1147    -0.0070    19.8582 </r>
       <r>    15.1946    -0.0473    19.8545 </r>
       <r>    15.2745    -0.0243    19.8525 </r>
       <r>    15.3544    -0.0069    19.8520 </r>
       <r>    15.4343    -0.0013    19.8519 </r>
       <r>    15.5142    -0.0002    19.8519 </r>
       <r>    15.5940    -0.0000    19.8519 </r>
       <r>    15.6739    -0.0000    19.8519 </r>
       <r>    15.7538    -0.0000    19.8519 </r>
       <r>    15.8337    -0.0000    19.8519 </r>
       <r>    15.9136    -0.0000    19.8519 </r>
       <r>    15.9935    -0.0000    19.8519 </r>
       <r>    16.0734    -0.0000    19.8519 </r>
       <r>    16.1533    -0.0000    19.8519 </r>
       <r>    16.2332    -0.0000    19.8519 </r>
       <r>    16.3131    -0.0000    19.8519 </r>
       <r>    16.3930    -0.0001    19.8518 </r>
       <r>    16.4729    -0.0005    19.8518 </r>
       <r>    16.5528    -0.0030    19.8516 </r>
       <r>    16.6327    -0.0120    19.8506 </r>
       <r>    16.7126    -0.0285    19.8483 </r>
       <r>    16.7925    -0.0212    19.8466 </r>
       <r>    16.8724     0.0907    19.8539 </r>
       <r>    16.9522     0.3429    19.8813 </r>
       <r>    17.0321     0.5797    19.9276 </r>
       <r>    17.1120     0.5697    19.9731 </r>
       <r>    17.1919     0.3238    19.9990 </r>
       <r>    17.2718     0.0785    20.0052 </r>
       <r>    17.3517    -0.0239    20.0033 </r>
       <r>    17.4316    -0.0275    20.0011 </r>
       <r>    17.5115    -0.0111    20.0003 </r>
       <r>    17.5914    -0.0027    20.0000 </r>
       <r>    17.6713    -0.0004    20.0000 </r>
       <r>    17.7512    -0.0000    20.0000 </r>
       <r>    17.8311    -0.0000    20.0000 </r>
       <r>    17.9110    -0.0000    20.0000 </r>
       <r>    17.9909    -0.0000    20.0000 </r>
       <r>    18.0708    -0.0000    20.0000 </r>
       <r>    18.1507    -0.0000    20.0000 </r>
       <r>    18.2306    -0.0000    20.0000 </r>
       <r>    18.3104    -0.0000    20.0000 </r>
       <r>    18.3903     0.0000    20.0000 </r>
       <r>    18.4702     0.0000    20.0000 </r>
       <r>    18.5501     0.0000    20.0000 </r>
       <r>    18.6300     0.0000    20.0000 </r>
       <r>    18.7099     0.0000    20.0000 </r>
       <r>    18.7898     0.0000    20.0000 </r>
       <r>    18.8697     0.0000    20.0000 </r>
       <r>    18.9496     0.0000    20.0000 </r>
       <r>    19.0295     0.0000    20.0000 </r>
      </set>
     </set>
    </array>
   </total>
  </dos>
 </calculation>
 <structure name="finalpos" >
  <crystal>
   <varray name="basis" >
    <v>       4.03893000       0.00000000       0.00000000 </v>
    <v>       0.00000000       4.03893000       0.00000000 </v>
    <v>       0.00000000       0.00000000       4.03893000 </v>
   </varray>
   <i name="volume">     65.88688554 </i>
   <varray name="rec_basis" >
    <v>       0.24759033       0.00000000       0.00000000 </v>
    <v>       0.00000000       0.24759033       0.00000000 </v>
    <v>       0.00000000       0.00000000       0.24759033 </v>
   </varray>
  </crystal>
  <varray name="positions" >
   <v>       0.00000000       0.00000000       0.00000000 </v>
   <v>       0.00000000       0.50000000       0.50000000 </v>
   <v>       0.50000000       0.00000000       0.50000000 </v>
   <v>       0.50000000       0.50000000       0.00000000 </v>
  </varray>
 </structure>
</modeling>
