 vasp.5.4.1 24Jun15 (build Mar  6 2017 20:45:23) complex                         
 executed on           IFC91_ompi date 2017.10.30  10:55:05
 running on    1 total cores
 distrk:  each k-point on    1 cores,    1 groups
 distr:  one band on NCORES_PER_BAND=   1 cores,    1 groups


--------------------------------------------------------------------------------------------------------


 INCAR:
 POTCAR:    PAW_PBE Fe_pv 02Aug2007               
 POTCAR:    PAW_PBE Se 06Sep2000                  
 POTCAR:    PAW_PBE Fe_pv 02Aug2007               
   VRHFIN =Fe:  3pd7s1                                                          
   LEXCH  = PE                                                                  
   EATOM  =  2457.4239 eV,  180.6156 Ry                                         
                                                                                
   TITEL  = PAW_PBE Fe_pv 02Aug2007                                             
   LULTRA =        F    use ultrasoft PP ?                                      
   IUNSCR =        1    unscreen: 0-lin 1-nonlin 2-no                           
   RPACOR =    1.750    partial core radius                                     
   POMASS =   55.847; ZVAL   =   14.000    mass and valenz                      
   RCORE  =    2.200    outmost cutoff radius                                   
   RWIGS  =    2.200; RWIGS  =    1.164    wigner-seitz radius (au A)           
   ENMAX  =  293.238; ENMIN  =  219.928 eV                                      
   ICORE  =        3    local potential                                         
   LCOR   =        T    correct aug charges                                     
   LPAW   =        T    paw PP                                                  
   EAUG   =  578.342                                                            
   DEXC   =    0.000                                                            
   RMAX   =    2.249    core radius for proj-oper                               
   RAUG   =    1.300    factor for augmentation sphere                          
   RDEP   =    2.296    radius for radial grids                                 
   RDEPT  =    1.766    core radius for aug-charge                              
                                                                                
   Atomic configuration                                                         
    8 entries                                                                   
     n  l   j            E        occ.                                          
     1  0  0.50     -6993.8440   2.0000                                         
     2  0  0.50      -814.6047   2.0000                                         
     2  1  1.50      -693.3689   6.0000                                         
     3  0  0.50       -89.4732   2.0000                                         
     3  1  1.50       -55.6373   6.0000                                         
     3  2  2.50        -3.8151   7.0000                                         
     4  0  0.50        -4.2551   1.0000                                         
     4  3  2.50        -1.3606   0.0000                                         
   Description                                                                  
     l       E           TYP  RCUT    TYP  RCUT                                 
     1    -55.6372668     23  2.000                                             
     1     -5.4423304     23  2.000                                             
     2     -3.8151096     23  2.200                                             
     2     -5.1756922     23  2.200                                             
     0     -4.2550951     23  2.200                                             
     0     27.2116520     23  2.200                                             
     3     -1.3605826     23  2.200                                             
  local pseudopotential read in
  partial core-charges read in
  partial kinetic energy density read in
  atomic valenz-charges read in
  non local Contribution for L=           1  read in
    real space projection operators read in
  non local Contribution for L=           1  read in
    real space projection operators read in
  non local Contribution for L=           2  read in
    real space projection operators read in
  non local Contribution for L=           2  read in
    real space projection operators read in
  non local Contribution for L=           0  read in
    real space projection operators read in
  non local Contribution for L=           0  read in
    real space projection operators read in
    PAW grid and wavefunctions read in

   number of l-projection  operators is LMAX  =           6
   number of lm-projection operators is LMMAX =          18

 POTCAR:    PAW_PBE Se 06Sep2000                  
   VRHFIN =Se: s2p4                                                             
   LEXCH  = PE                                                                  
   EATOM  =   257.1286 eV,   18.8984 Ry                                         
                                                                                
   TITEL  = PAW_PBE Se 06Sep2000                                                
   LULTRA =        F    use ultrasoft PP ?                                      
   IUNSCR =        1    unscreen: 0-lin 1-nonlin 2-no                           
   RPACOR =    1.900    partial core radius                                     
   POMASS =   78.960; ZVAL   =    6.000    mass and valenz                      
   RCORE  =    2.100    outmost cutoff radius                                   
   RWIGS  =    2.200; RWIGS  =    1.164    wigner-seitz radius (au A)           
   ENMAX  =  211.555; ENMIN  =  158.666 eV                                      
   ICORE  =        3    local potential                                         
   LCOR   =        T    correct aug charges                                     
   LPAW   =        T    paw PP                                                  
   EAUG   =  446.842                                                            
   DEXC   =    0.000                                                            
   RMAX   =    2.147    core radius for proj-oper                               
   RAUG   =    1.300    factor for augmentation sphere                          
   RDEP   =    2.177    radius for radial grids                                 
   RDEPT  =    1.928    core radius for aug-charge                              
                                                                                
   Atomic configuration                                                         
   10 entries                                                                   
     n  l   j            E        occ.                                          
     1  0  0.50    -12503.4787   2.0000                                         
     2  0  0.50     -1606.9547   2.0000                                         
     2  1  1.50     -1413.3140   6.0000                                         
     3  0  0.50      -213.4885   2.0000                                         
     3  1  1.50      -152.9538   6.0000                                         
     3  2  2.50       -53.1221  10.0000                                         
     4  0  0.50       -17.2865   2.0000                                         
     4  1  0.50        -6.5110   4.0000                                         
     4  2  2.50        -6.8029   0.0000                                         
     4  3  2.50        -6.8029   0.0000                                         
   Description                                                                  
     l       E           TYP  RCUT    TYP  RCUT                                 
     0    -17.2865377     23  2.100                                             
     0    -15.3094411     23  2.100                                             
     1     -6.5110275     23  2.100                                             
     1     -0.0695192     23  2.100                                             
     2     -6.8029130     23  2.100                                             
     3     -1.3605826      7  2.100                                             
  local pseudopotential read in
  partial core-charges read in
  partial kinetic energy density read in
  atomic valenz-charges read in
  non local Contribution for L=           0  read in
    real space projection operators read in
  non local Contribution for L=           0  read in
    real space projection operators read in
  non local Contribution for L=           1  read in
    real space projection operators read in
  non local Contribution for L=           1  read in
    real space projection operators read in
  non local Contribution for L=           2  read in
    real space projection operators read in
    PAW grid and wavefunctions read in

   number of l-projection  operators is LMAX  =           5
   number of lm-projection operators is LMMAX =          13

  PAW_PBE Fe_pv 02Aug2007               :
 energy of atom  1       EATOM=-2457.4239
 kinetic energy error for atom=    0.0680 (will be added to EATOM!!)
  PAW_PBE Se 06Sep2000                  :
 energy of atom  2       EATOM= -257.1286
 kinetic energy error for atom=    0.0040 (will be added to EATOM!!)


 POSCAR: Fe2 Se2                                 
  positions in direct lattice
  No initial velocities read in
 exchange correlation table for  LEXCH =        8
   RHO(1)=    0.500       N(1)  =     2000
   RHO(2)=  100.500       N(2)  =     4000



--------------------------------------------------------------------------------------------------------


 ion  position               nearest neighbor table
   1  0.000  0.000  0.000-   4 2.31   4 2.31   3 2.31   3 2.31   2 2.58   2 2.58   2 2.58   2 2.58

   2  0.500  0.500  0.000-   4 2.31   4 2.31   3 2.31   3 2.31   1 2.58   1 2.58   1 2.58   1 2.58

   3  0.000  0.500  0.241-   1 2.31   2 2.31   1 2.31   2 2.31
   4  0.500  0.000  0.759-   1 2.31   2 2.31   2 2.31   1 2.31


IMPORTANT INFORMATION: All symmetrisations will be switched off!
NOSYMM: (Re-)initialisation of all symmetry stuff for point group C_1.



 KPOINTS: pymatgen generated KPOINTS with grid den

Automatic generation of k-mesh.
Space group operators:
 irot       det(A)        alpha          n_x          n_y          n_z        tau_x        tau_y        tau_z
    1     1.000000     0.000001     1.000000     0.000000     0.000000     0.000000     0.000000     0.000000
 
 Subroutine IBZKPT returns following result:
 ===========================================
 
 Found     32 irreducible k-points:
 
 Following reciprocal coordinates:
            Coordinates               Weight
  0.125000  0.125000  0.250000      1.000000
  0.375000  0.125000  0.250000      1.000000
 -0.375000  0.125000  0.250000      1.000000
 -0.125000  0.125000  0.250000      1.000000
  0.125000  0.375000  0.250000      1.000000
  0.375000  0.375000  0.250000      1.000000
 -0.375000  0.375000  0.250000      1.000000
 -0.125000  0.375000  0.250000      1.000000
  0.125000 -0.375000  0.250000      1.000000
  0.375000 -0.375000  0.250000      1.000000
 -0.375000 -0.375000  0.250000      1.000000
 -0.125000 -0.375000  0.250000      1.000000
  0.125000 -0.125000  0.250000      1.000000
  0.375000 -0.125000  0.250000      1.000000
 -0.375000 -0.125000  0.250000      1.000000
 -0.125000 -0.125000  0.250000      1.000000
  0.125000  0.125000 -0.250000      1.000000
  0.375000  0.125000 -0.250000      1.000000
 -0.375000  0.125000 -0.250000      1.000000
 -0.125000  0.125000 -0.250000      1.000000
  0.125000  0.375000 -0.250000      1.000000
  0.375000  0.375000 -0.250000      1.000000
 -0.375000  0.375000 -0.250000      1.000000
 -0.125000  0.375000 -0.250000      1.000000
  0.125000 -0.375000 -0.250000      1.000000
  0.375000 -0.375000 -0.250000      1.000000
 -0.375000 -0.375000 -0.250000      1.000000
 -0.125000 -0.375000 -0.250000      1.000000
  0.125000 -0.125000 -0.250000      1.000000
  0.375000 -0.125000 -0.250000      1.000000
 -0.375000 -0.125000 -0.250000      1.000000
 -0.125000 -0.125000 -0.250000      1.000000
 
 Following cartesian coordinates:
            Coordinates               Weight
  0.034233  0.034233  0.042561      1.000000
  0.102700  0.034233  0.042561      1.000000
 -0.102700  0.034233  0.042561      1.000000
 -0.034233  0.034233  0.042561      1.000000
  0.034233  0.102700  0.042561      1.000000
  0.102700  0.102700  0.042561      1.000000
 -0.102700  0.102700  0.042561      1.000000
 -0.034233  0.102700  0.042561      1.000000
  0.034233 -0.102700  0.042561      1.000000
  0.102700 -0.102700  0.042561      1.000000
 -0.102700 -0.102700  0.042561      1.000000
 -0.034233 -0.102700  0.042561      1.000000
  0.034233 -0.034233  0.042561      1.000000
  0.102700 -0.034233  0.042561      1.000000
 -0.102700 -0.034233  0.042561      1.000000
 -0.034233 -0.034233  0.042561      1.000000
  0.034233  0.034233 -0.042561      1.000000
  0.102700  0.034233 -0.042561      1.000000
 -0.102700  0.034233 -0.042561      1.000000
 -0.034233  0.034233 -0.042561      1.000000
  0.034233  0.102700 -0.042561      1.000000
  0.102700  0.102700 -0.042561      1.000000
 -0.102700  0.102700 -0.042561      1.000000
 -0.034233  0.102700 -0.042561      1.000000
  0.034233 -0.102700 -0.042561      1.000000
  0.102700 -0.102700 -0.042561      1.000000
 -0.102700 -0.102700 -0.042561      1.000000
 -0.034233 -0.102700 -0.042561      1.000000
  0.034233 -0.034233 -0.042561      1.000000
  0.102700 -0.034233 -0.042561      1.000000
 -0.102700 -0.034233 -0.042561      1.000000
 -0.034233 -0.034233 -0.042561      1.000000
 


--------------------------------------------------------------------------------------------------------




 Dimension of arrays:
   k-points           NKPTS =     32   k-points in BZ     NKDIM =     32   number of bands    NBANDS=     24
   number of dos      NEDOS =    301   number of ions     NIONS =      4
   non local maximal  LDIM  =      6   non local SUM 2l+1 LMDIM =     18
   total plane-waves  NPLWV =  20736
   max r-space proj   IRMAX =      1   max aug-charges    IRDMAX=  11745
   dimension x,y,z NGX =    24 NGY =   24 NGZ =   36
   dimension x,y,z NGXF=    48 NGYF=   48 NGZF=   72
   support grid    NGXF=    48 NGYF=   48 NGZF=   72
   ions per type =               2   2
 NGX,Y,Z   is equivalent  to a cutoff of  10.93, 10.93, 10.19 a.u.
 NGXF,Y,Z  is equivalent  to a cutoff of  21.85, 21.85, 20.38 a.u.


 I would recommend the setting:
   dimension x,y,z NGX =    21 NGY =   21 NGZ =   33
 SYSTEM =  unknown system                          
 POSCAR =  Fe2 Se2                                 

 Startparameter for this run:
   NWRITE =      3    write-flag & timer
   PREC   = accura    normal or accurate (medium, high low for compatibility)
   ISTART =      1    job   : 0-new  1-cont  2-samecut
   ICHARG =     11    charge: 1-file 2-atom 10-const
   ISPIN  =      1    spin polarized calculation?
   LNONCOLLINEAR =      F non collinear calculations
   LSORBIT =      F    spin-orbit coupling
   INIWAV =      1    electr: 0-lowe 1-rand  2-diag
   LASPH  =      F    aspherical Exc in radial PAW
   METAGGA=      F    non-selfconsistent MetaGGA calc.

 Electronic Relaxation 1
   ENCUT  =  300.0 eV  22.05 Ry    4.70 a.u.   5.16  5.16  8.30*2*pi/ulx,y,z
   ENINI  =  300.0     initial cutoff
   ENAUG  =  578.3 eV  augmentation charge cutoff
   NELM   =    100;   NELMIN=  5; NELMDL=  0     # of ELM steps 
   EDIFF  = 0.1E-07   stopping-criterion for ELM
   LREAL  =      F    real-space projection
   NLSPLINE    = F    spline interpolate recip. space projectors
   LCOMPAT=      F    compatible to vasp.4.4
   GGA_COMPAT  = T    GGA compatible to vasp.4.4-vasp.4.6
   LMAXPAW     = -100 max onsite density
   LMAXMIX     =    2 max onsite mixed and CHGCAR
   VOSKOWN=      0    Vosko Wilk Nusair interpolation
   ROPT   =    0.00000   0.00000
 Ionic relaxation
   EDIFFG = 0.1E-06   stopping-criterion for IOM
   NSW    =      0    number of steps for IOM
   NBLOCK =      1;   KBLOCK =      1    inner block; outer block 
   IBRION =     -1    ionic relax: 0-MD 1-quasi-New 2-CG
   NFREE  =      0    steps in history (QN), initial steepest desc. (CG)
   ISIF   =      2    stress and relaxation
   IWAVPR =     10    prediction:  0-non 1-charg 2-wave 3-comb
   ISYM   =     -1    0-nonsym 1-usesym 2-fastsym
   LCORR  =      T    Harris-Foulkes like correction to forces

   POTIM  = 0.5000    time-step for ionic-motion
   TEIN   =    0.0    initial temperature
   TEBEG  =    0.0;   TEEND  =   0.0 temperature during run
   SMASS  =  -3.00    Nose mass-parameter (am)
   estimated Nose-frequenzy (Omega)   =  0.10E-29 period in steps =****** mass=  -0.305E-27a.u.
   SCALEE = 1.0000    scale energy and forces
   NPACO  =    256;   APACO  = 16.0  distance and # of slots for P.C.
   PSTRESS=    0.0 pullay stress

  Mass of Ions in am
   POMASS =  55.85 78.96
  Ionic Valenz
   ZVAL   =  14.00  6.00
  Atomic Wigner-Seitz radii
   RWIGS  =  -1.00 -1.00
  virtual crystal weights 
   VCA    =   1.00  1.00
   NELECT =      40.0000    total number of electrons
   NUPDOWN=      -1.0000    fix difference up-down

 DOS related values:
   EMIN   =  10.00;   EMAX   =-10.00  energy-range for DOS
   EFERMI =   0.00
   ISMEAR =     1;   SIGMA  =   0.05  broadening in eV -4-tet -1-fermi 0-gaus

 Electronic relaxation 2 (details)
   IALGO  =     68    algorithm
   LDIAG  =      T    sub-space diagonalisation (order eigenvalues)
   LSUBROT=      F    optimize rotation matrix (better conditioning)
   TURBO    =      0    0=normal 1=particle mesh
   IRESTART =      0    0=no restart 2=restart with 2 vectors
   NREBOOT  =      0    no. of reboots
   NMIN     =      0    reboot dimension
   EREF     =   0.00    reference energy to select bands
   IMIX   =      4    mixing-type and parameters
     AMIX     =   0.40;   BMIX     =  1.00
     AMIX_MAG =   1.60;   BMIX_MAG =  1.00
     AMIN     =   0.10
     WC   =   100.;   INIMIX=   1;  MIXPRE=   1;  MAXMIX= -45

 Intra band minimization:
   WEIMIN = 0.0000     energy-eigenvalue tresh-hold
   EBREAK =  0.10E-09  absolut break condition
   DEPER  =   0.30     relativ break condition  

   TIME   =   0.40     timestep for ELM

  volume/ion in A,a.u.               =      19.58       132.13
  Fermi-wavevector in a.u.,A,eV,Ry     =   1.308609  2.472913 23.299410  1.712458
  Thomas-Fermi vector in A             =   2.439265

 Write flags
   LWAVE  =      T    write WAVECAR
   LCHARG =      T    write CHGCAR
   LVTOT  =      F    write LOCPOT, total local potential
   LVHAR  =      F    write LOCPOT, Hartree potential only
   LELF   =      F    write electronic localiz. function (ELF)
   LORBIT =      0    0 simple, 1 ext, 2 COOP (PROOUT)


 Dipole corrections
   LMONO  =      F    monopole corrections only (constant potential shift)
   LDIPOL =      F    correct potential (dipole corrections)
   IDIPOL =      0    1-x, 2-y, 3-z, 4-all directions 
   EPSILON=  1.0000000 bulk dielectric constant

 Exchange correlation treatment:
   GGA     =    --    GGA type
   LEXCH   =     8    internal setting for exchange type
   VOSKOWN=      0    Vosko Wilk Nusair interpolation
   LHFCALC =     F    Hartree Fock is set to
   LHFONE  =     F    Hartree Fock one center treatment
   AEXX    =    0.0000 exact exchange contribution

 Linear response parameters
   LEPSILON=     F    determine dielectric tensor
   LRPA    =     F    only Hartree local field effects (RPA)
   LNABLA  =     F    use nabla operator in PAW spheres
   LVEL    =     F    velocity operator in full k-point grid
   LINTERFAST=   F  fast interpolation
   KINTER  =     0    interpolate to denser k-point grid
   CSHIFT  =0.1000    complex shift for real part using Kramers Kronig
   OMEGAMAX=  -1.0    maximum frequency
   DEG_THRESHOLD= 0.2000000E-02 threshold for treating states as degnerate
   RTIME   =    0.100 relaxation time in fs

 Orbital magnetization related:
   ORBITALMAG=     F  switch on orbital magnetization
   LCHIMAG   =     F  perturbation theory with respect to B field
   DQ        =  0.001000  dq finite difference perturbation B field



--------------------------------------------------------------------------------------------------------


 Static calculation
 charge density and potential remain constant during run
 non-spin polarized calculation
 RMM-DIIS sequential band-by-band and
  variant of blocked Davidson during initial phase
 perform sub-space diagonalisation
    before iterative eigenvector-optimisation
 no mixing
 using additional bands            4
 reciprocal scheme for non local part
 use partial core corrections
 calculate Harris-corrections to forces   (improved forces if not selfconsistent)
 use gradient corrections 
 WARNING: stress and forces are not correct
  (second derivative of E(xc) not defined)
 use of overlap-Matrix (Vanderbilt PP)
 Methfessel and Paxton  Order N= 1 SIGMA  =   0.05


--------------------------------------------------------------------------------------------------------


  energy-cutoff  :      300.00
  volume of cell :       78.32
      direct lattice vectors                 reciprocal lattice vectors
     3.651424000  0.000000000  0.000000000     0.273865758  0.000000000  0.000000000
     0.000000000  3.651424000  0.000000000     0.000000000  0.273865758  0.000000000
     0.000000000  0.000000000  5.873946000     0.000000000  0.000000000  0.170243308

  length of vectors
     3.651424000  3.651424000  5.873946000     0.273865758  0.273865758  0.170243308



 old parameters found on file WAVECAR:
  energy-cutoff  :      300.00
  volume of cell :       78.32
      direct lattice vectors                 reciprocal lattice vectors
     3.651424000  0.000000000  0.000000000     0.273865758  0.000000000  0.000000000
     0.000000000  3.651424000  0.000000000     0.000000000  0.273865758  0.000000000
     0.000000000  0.000000000  5.873946000     0.000000000  0.000000000  0.170243308

  length of vectors


 k-points in units of 2pi/SCALE and weight: pymatgen generated KPOINTS with grid den
   0.03423322  0.03423322  0.04256083       0.031
   0.10269966  0.03423322  0.04256083       0.031
  -0.10269966  0.03423322  0.04256083       0.031
  -0.03423322  0.03423322  0.04256083       0.031
   0.03423322  0.10269966  0.04256083       0.031
   0.10269966  0.10269966  0.04256083       0.031
  -0.10269966  0.10269966  0.04256083       0.031
  -0.03423322  0.10269966  0.04256083       0.031
   0.03423322 -0.10269966  0.04256083       0.031
   0.10269966 -0.10269966  0.04256083       0.031
  -0.10269966 -0.10269966  0.04256083       0.031
  -0.03423322 -0.10269966  0.04256083       0.031
   0.03423322 -0.03423322  0.04256083       0.031
   0.10269966 -0.03423322  0.04256083       0.031
  -0.10269966 -0.03423322  0.04256083       0.031
  -0.03423322 -0.03423322  0.04256083       0.031
   0.03423322  0.03423322 -0.04256083       0.031
   0.10269966  0.03423322 -0.04256083       0.031
  -0.10269966  0.03423322 -0.04256083       0.031
  -0.03423322  0.03423322 -0.04256083       0.031
   0.03423322  0.10269966 -0.04256083       0.031
   0.10269966  0.10269966 -0.04256083       0.031
  -0.10269966  0.10269966 -0.04256083       0.031
  -0.03423322  0.10269966 -0.04256083       0.031
   0.03423322 -0.10269966 -0.04256083       0.031
   0.10269966 -0.10269966 -0.04256083       0.031
  -0.10269966 -0.10269966 -0.04256083       0.031
  -0.03423322 -0.10269966 -0.04256083       0.031
   0.03423322 -0.03423322 -0.04256083       0.031
   0.10269966 -0.03423322 -0.04256083       0.031
  -0.10269966 -0.03423322 -0.04256083       0.031
  -0.03423322 -0.03423322 -0.04256083       0.031

 k-points in reciprocal lattice and weights: pymatgen generated KPOINTS with grid den
   0.12500000  0.12500000  0.25000000       0.031
   0.37500000  0.12500000  0.25000000       0.031
  -0.37500000  0.12500000  0.25000000       0.031
  -0.12500000  0.12500000  0.25000000       0.031
   0.12500000  0.37500000  0.25000000       0.031
   0.37500000  0.37500000  0.25000000       0.031
  -0.37500000  0.37500000  0.25000000       0.031
  -0.12500000  0.37500000  0.25000000       0.031
   0.12500000 -0.37500000  0.25000000       0.031
   0.37500000 -0.37500000  0.25000000       0.031
  -0.37500000 -0.37500000  0.25000000       0.031
  -0.12500000 -0.37500000  0.25000000       0.031
   0.12500000 -0.12500000  0.25000000       0.031
   0.37500000 -0.12500000  0.25000000       0.031
  -0.37500000 -0.12500000  0.25000000       0.031
  -0.12500000 -0.12500000  0.25000000       0.031
   0.12500000  0.12500000 -0.25000000       0.031
   0.37500000  0.12500000 -0.25000000       0.031
  -0.37500000  0.12500000 -0.25000000       0.031
  -0.12500000  0.12500000 -0.25000000       0.031
   0.12500000  0.37500000 -0.25000000       0.031
   0.37500000  0.37500000 -0.25000000       0.031
  -0.37500000  0.37500000 -0.25000000       0.031
  -0.12500000  0.37500000 -0.25000000       0.031
   0.12500000 -0.37500000 -0.25000000       0.031
   0.37500000 -0.37500000 -0.25000000       0.031
  -0.37500000 -0.37500000 -0.25000000       0.031
  -0.12500000 -0.37500000 -0.25000000       0.031
   0.12500000 -0.12500000 -0.25000000       0.031
   0.37500000 -0.12500000 -0.25000000       0.031
  -0.37500000 -0.12500000 -0.25000000       0.031
  -0.12500000 -0.12500000 -0.25000000       0.031

 position of ions in fractional coordinates (direct lattice) 
   0.00000000  0.00000000  0.00000000
   0.50000000  0.50000000  0.00000000
   0.00000000  0.50000000  0.24120400
   0.50000000  0.00000000  0.75879700

 position of ions in cartesian coordinates  (Angst):
   0.00000000  0.00000000  0.00000000
   1.82571200  1.82571200  0.00000000
   0.00000000  1.82571200  1.41681927
   1.82571200  0.00000000  4.45713260



--------------------------------------------------------------------------------------------------------


 k-point  1 :   0.1250 0.1250 0.2500  plane waves:     917
 k-point  2 :   0.3750 0.1250 0.2500  plane waves:     920
 k-point  3 :  -0.3750 0.1250 0.2500  plane waves:     920
 k-point  4 :  -0.1250 0.1250 0.2500  plane waves:     917
 k-point  5 :   0.1250 0.3750 0.2500  plane waves:     920
 k-point  6 :   0.3750 0.3750 0.2500  plane waves:     932
 k-point  7 :  -0.3750 0.3750 0.2500  plane waves:     932
 k-point  8 :  -0.1250 0.3750 0.2500  plane waves:     920
 k-point  9 :   0.1250-0.3750 0.2500  plane waves:     920
 k-point 10 :   0.3750-0.3750 0.2500  plane waves:     932
 k-point 11 :  -0.3750-0.3750 0.2500  plane waves:     932
 k-point 12 :  -0.1250-0.3750 0.2500  plane waves:     920
 k-point 13 :   0.1250-0.1250 0.2500  plane waves:     917
 k-point 14 :   0.3750-0.1250 0.2500  plane waves:     920
 k-point 15 :  -0.3750-0.1250 0.2500  plane waves:     920
 k-point 16 :  -0.1250-0.1250 0.2500  plane waves:     917
 k-point 17 :   0.1250 0.1250-0.2500  plane waves:     917
 k-point 18 :   0.3750 0.1250-0.2500  plane waves:     920
 k-point 19 :  -0.3750 0.1250-0.2500  plane waves:     920
 k-point 20 :  -0.1250 0.1250-0.2500  plane waves:     917
 k-point 21 :   0.1250 0.3750-0.2500  plane waves:     920
 k-point 22 :   0.3750 0.3750-0.2500  plane waves:     932
 k-point 23 :  -0.3750 0.3750-0.2500  plane waves:     932
 k-point 24 :  -0.1250 0.3750-0.2500  plane waves:     920
 k-point 25 :   0.1250-0.3750-0.2500  plane waves:     920
 k-point 26 :   0.3750-0.3750-0.2500  plane waves:     932
 k-point 27 :  -0.3750-0.3750-0.2500  plane waves:     932
 k-point 28 :  -0.1250-0.3750-0.2500  plane waves:     920
 k-point 29 :   0.1250-0.1250-0.2500  plane waves:     917
 k-point 30 :   0.3750-0.1250-0.2500  plane waves:     920
 k-point 31 :  -0.3750-0.1250-0.2500  plane waves:     920
 k-point 32 :  -0.1250-0.1250-0.2500  plane waves:     917

 maximum and minimum number of plane-waves per node :       932      917

 maximum number of plane-waves:       932
 maximum index in each direction: 
   IXMAX=    5   IYMAX=    5   IZMAX=    8
   IXMIN=   -5   IYMIN=   -5   IZMIN=   -8

 NGX is ok and might be reduce to  22
 NGY is ok and might be reduce to  22
 NGZ is ok and might be reduce to  34

 serial   3D FFT for wavefunctions
 parallel 3D FFT for charge:
    minimum data exchange during FFTs selected (reduces bandwidth)


 total amount of memory used by VASP on root node    67040. kBytes
========================================================================

   base      :      30000. kBytes
   nonl-proj :       8648. kBytes
   fftplans  :       5804. kBytes
   grid      :      10312. kBytes
   one-center:         62. kBytes
   wavefun   :      12214. kBytes

     INWAV:  cpu time    0.0241: real time    0.0242
 initial charge density was supplied:
 number of electron      39.9999973 magnetization 
 keeping initial charge density in first step


--------------------------------------------------------------------------------------------------------


 Maximum index for augmentation-charges        11158 (set IRDMAX)


--------------------------------------------------------------------------------------------------------


 First call to EWALD:  gamma=   0.414
 Maximum number of real-space cells 3x 3x 2
 Maximum number of reciprocal cells 2x 2x 4

 FEWALD executed in parallel
    FEWALD:  cpu time    0.0011: real time    0.0011


----------------------------------------- Iteration    1(   1)  ---------------------------------------


    POTLOK:  cpu time    0.1147: real time    0.1148
    SETDIJ:  cpu time    0.0127: real time    0.0127
     EDDAV:  cpu time    1.6173: real time    1.6189
       DOS:  cpu time    0.0011: real time    0.0011
    --------------------------------------------
      LOOP:  cpu time    1.7465: real time    1.7484

 eigenvalue-minimisations  :   796
 total energy-change (2. order) :-0.2455490E+02  (-0.4574353E-08)
 number of electron      39.9999973 magnetization 
 augmentation part       39.9999973 magnetization 

 Free energy of the ion-electron system (eV)
  ---------------------------------------------------
  alpha Z        PSCENC =       150.82517259
  Ewald energy   TEWEN  =     -2417.27147393
  -Hartree energ DENC   =     -2615.93882813
  -exchange      EXHF   =         0.00000000
  -V(xc)+E(xc)   XCENC  =       140.15897770
  PAW double counting   =      5153.03625999    -5306.93080730
  entropy T*S    EENTRO =         0.00527901
  eigenvalues    EBANDS =      -557.40039307
  atomic energy  EATOM  =      5428.96091767
  Solvation  Ediel_sol  =         0.00000000
  ---------------------------------------------------
  free energy    TOTEN  =       -24.55489547 eV

  energy without entropy =      -24.56017448  energy(sigma->0) =      -24.55665514


--------------------------------------------------------------------------------------------------------




 average (electrostatic) potential at core
  the test charge radii are     0.9500  1.0808
  (the norm of the test charge is              1.0000)
       1 -78.3754       2 -78.3754       3 -54.1411       4 -54.1411



 E-fermi :   4.9630     XC(G=0): -10.0246     alpha+bet :-10.5776


 k-point     1 :       0.1250    0.1250    0.2500
  band No.  band energies     occupation 
      1     -48.0307      2.00000
      2     -48.0002      2.00000
      3     -47.8880      2.00000
      4     -47.8572      2.00000
      5     -47.8013      2.00000
      6     -47.7654      2.00000
      7      -9.6152      2.00000
      8      -8.8151      2.00000
      9      -0.6552      2.00000
     10       0.1723      2.00000
     11       0.6018      2.00000
     12       0.8389      2.00000
     13       1.3299      2.00000
     14       1.7552      2.00000
     15       2.3579      2.00000
     16       4.1339      2.00000
     17       4.2389      2.00000
     18       4.2960      2.00000
     19       4.8829      2.04590
     20       4.9093      2.06237
     21       5.7924     -0.00000
     22       5.9806     -0.00000
     23       6.6096      0.00000
     24       6.9959      0.00000

 k-point     2 :       0.3750    0.1250    0.2500
  band No.  band energies     occupation 
      1     -48.0120      2.00000
      2     -47.9533      2.00000
      3     -47.9385      2.00000
      4     -47.8790      2.00000
      5     -47.7905      2.00000
      6     -47.7754      2.00000
      7      -9.0901      2.00000
      8      -8.7342      2.00000
      9      -0.6411      2.00000
     10      -0.4607      2.00000
     11       0.5699      2.00000
     12       0.9489      2.00000
     13       1.1267      2.00000
     14       1.4999      2.00000
     15       2.9897      2.00000
     16       3.5026      2.00000
     17       3.8812      2.00000
     18       3.9994      2.00000
     19       4.2948      2.00000
     20       4.4048      2.00000
     21       5.6994     -0.00000
     22       5.8424     -0.00000
     23       6.4145      0.00000
     24       6.6436      0.00000

 k-point     3 :      -0.3750    0.1250    0.2500
  band No.  band energies     occupation 
      1     -48.0120      2.00000
      2     -47.9533      2.00000
      3     -47.9385      2.00000
      4     -47.8790      2.00000
      5     -47.7905      2.00000
      6     -47.7754      2.00000
      7      -9.0901      2.00000
      8      -8.7342      2.00000
      9      -0.6411      2.00000
     10      -0.4607      2.00000
     11       0.5699      2.00000
     12       0.9489      2.00000
     13       1.1267      2.00000
     14       1.4999      2.00000
     15       2.9897      2.00000
     16       3.5026      2.00000
     17       3.8812      2.00000
     18       3.9994      2.00000
     19       4.2948      2.00000
     20       4.4048      2.00000
     21       5.6994     -0.00000
     22       5.8424     -0.00000
     23       6.4145      0.00000
     24       6.6436      0.00000

 k-point     4 :      -0.1250    0.1250    0.2500
  band No.  band energies     occupation 
      1     -48.0307      2.00000
      2     -48.0002      2.00000
      3     -47.8880      2.00000
      4     -47.8572      2.00000
      5     -47.8013      2.00000
      6     -47.7654      2.00000
      7      -9.6152      2.00000
      8      -8.8151      2.00000
      9      -0.6552      2.00000
     10       0.1723      2.00000
     11       0.6018      2.00000
     12       0.8389      2.00000
     13       1.3299      2.00000
     14       1.7552      2.00000
     15       2.3579      2.00000
     16       4.1339      2.00000
     17       4.2389      2.00000
     18       4.2960      2.00000
     19       4.8829      2.04590
     20       4.9093      2.06237
     21       5.7924     -0.00000
     22       5.9806     -0.00000
     23       6.6096      0.00000
     24       6.9959      0.00000

 k-point     5 :       0.1250    0.3750    0.2500
  band No.  band energies     occupation 
      1     -48.0120      2.00000
      2     -47.9533      2.00000
      3     -47.9385      2.00000
      4     -47.8790      2.00000
      5     -47.7905      2.00000
      6     -47.7754      2.00000
      7      -9.0901      2.00000
      8      -8.7342      2.00000
      9      -0.6411      2.00000
     10      -0.4607      2.00000
     11       0.5699      2.00000
     12       0.9489      2.00000
     13       1.1267      2.00000
     14       1.4999      2.00000
     15       2.9897      2.00000
     16       3.5026      2.00000
     17       3.8812      2.00000
     18       3.9994      2.00000
     19       4.2948      2.00000
     20       4.4048      2.00000
     21       5.6994     -0.00000
     22       5.8424     -0.00000
     23       6.4145      0.00000
     24       6.6436      0.00000

 k-point     6 :       0.3750    0.3750    0.2500
  band No.  band energies     occupation 
      1     -48.0479      2.00000
      2     -48.0238      2.00000
      3     -47.8703      2.00000
      4     -47.8456      2.00000
      5     -47.7858      2.00000
      6     -47.7794      2.00000
      7      -8.6976      2.00000
      8      -8.5405      2.00000
      9      -0.8293      2.00000
     10      -0.6216      2.00000
     11       0.6514      2.00000
     12       0.9960      2.00000
     13       1.3407      2.00000
     14       1.5688      2.00000
     15       2.9650      2.00000
     16       3.1091      2.00000
     17       3.2424      2.00000
     18       3.3935      2.00000
     19       4.3320      2.00000
     20       4.6741      2.00000
     21       5.0101     -0.03601
     22       5.0211     -0.06964
     23       6.1220     -0.00000
     24       6.2246     -0.00000

 k-point     7 :      -0.3750    0.3750    0.2500
  band No.  band energies     occupation 
      1     -48.0479      2.00000
      2     -48.0238      2.00000
      3     -47.8703      2.00000
      4     -47.8456      2.00000
      5     -47.7858      2.00000
      6     -47.7794      2.00000
      7      -8.6976      2.00000
      8      -8.5405      2.00000
      9      -0.8293      2.00000
     10      -0.6216      2.00000
     11       0.6514      2.00000
     12       0.9960      2.00000
     13       1.3407      2.00000
     14       1.5688      2.00000
     15       2.9650      2.00000
     16       3.1091      2.00000
     17       3.2424      2.00000
     18       3.3935      2.00000
     19       4.3320      2.00000
     20       4.6741      2.00000
     21       5.0101     -0.03601
     22       5.0211     -0.06964
     23       6.1220     -0.00000
     24       6.2246     -0.00000

 k-point     8 :      -0.1250    0.3750    0.2500
  band No.  band energies     occupation 
      1     -48.0120      2.00000
      2     -47.9533      2.00000
      3     -47.9385      2.00000
      4     -47.8790      2.00000
      5     -47.7905      2.00000
      6     -47.7754      2.00000
      7      -9.0901      2.00000
      8      -8.7342      2.00000
      9      -0.6411      2.00000
     10      -0.4607      2.00000
     11       0.5699      2.00000
     12       0.9489      2.00000
     13       1.1267      2.00000
     14       1.4999      2.00000
     15       2.9897      2.00000
     16       3.5026      2.00000
     17       3.8812      2.00000
     18       3.9994      2.00000
     19       4.2948      2.00000
     20       4.4048      2.00000
     21       5.6994     -0.00000
     22       5.8424     -0.00000
     23       6.4145      0.00000
     24       6.6436      0.00000

 k-point     9 :       0.1250   -0.3750    0.2500
  band No.  band energies     occupation 
      1     -48.0120      2.00000
      2     -47.9533      2.00000
      3     -47.9385      2.00000
      4     -47.8790      2.00000
      5     -47.7905      2.00000
      6     -47.7754      2.00000
      7      -9.0901      2.00000
      8      -8.7342      2.00000
      9      -0.6411      2.00000
     10      -0.4607      2.00000
     11       0.5699      2.00000
     12       0.9489      2.00000
     13       1.1267      2.00000
     14       1.4999      2.00000
     15       2.9897      2.00000
     16       3.5026      2.00000
     17       3.8812      2.00000
     18       3.9994      2.00000
     19       4.2948      2.00000
     20       4.4048      2.00000
     21       5.6994     -0.00000
     22       5.8424     -0.00000
     23       6.4145      0.00000
     24       6.6436      0.00000

 k-point    10 :       0.3750   -0.3750    0.2500
  band No.  band energies     occupation 
      1     -48.0479      2.00000
      2     -48.0238      2.00000
      3     -47.8703      2.00000
      4     -47.8456      2.00000
      5     -47.7858      2.00000
      6     -47.7794      2.00000
      7      -8.6976      2.00000
      8      -8.5405      2.00000
      9      -0.8293      2.00000
     10      -0.6216      2.00000
     11       0.6514      2.00000
     12       0.9960      2.00000
     13       1.3407      2.00000
     14       1.5688      2.00000
     15       2.9650      2.00000
     16       3.1091      2.00000
     17       3.2424      2.00000
     18       3.3935      2.00000
     19       4.3320      2.00000
     20       4.6741      2.00000
     21       5.0101     -0.03601
     22       5.0211     -0.06964
     23       6.1220     -0.00000
     24       6.2246     -0.00000

 k-point    11 :      -0.3750   -0.3750    0.2500
  band No.  band energies     occupation 
      1     -48.0479      2.00000
      2     -48.0238      2.00000
      3     -47.8703      2.00000
      4     -47.8456      2.00000
      5     -47.7858      2.00000
      6     -47.7794      2.00000
      7      -8.6976      2.00000
      8      -8.5405      2.00000
      9      -0.8293      2.00000
     10      -0.6216      2.00000
     11       0.6514      2.00000
     12       0.9960      2.00000
     13       1.3407      2.00000
     14       1.5688      2.00000
     15       2.9650      2.00000
     16       3.1091      2.00000
     17       3.2424      2.00000
     18       3.3935      2.00000
     19       4.3320      2.00000
     20       4.6741      2.00000
     21       5.0101     -0.03601
     22       5.0211     -0.06964
     23       6.1220     -0.00000
     24       6.2246     -0.00000

 k-point    12 :      -0.1250   -0.3750    0.2500
  band No.  band energies     occupation 
      1     -48.0120      2.00000
      2     -47.9533      2.00000
      3     -47.9385      2.00000
      4     -47.8790      2.00000
      5     -47.7905      2.00000
      6     -47.7754      2.00000
      7      -9.0901      2.00000
      8      -8.7342      2.00000
      9      -0.6411      2.00000
     10      -0.4607      2.00000
     11       0.5699      2.00000
     12       0.9489      2.00000
     13       1.1267      2.00000
     14       1.4999      2.00000
     15       2.9897      2.00000
     16       3.5026      2.00000
     17       3.8812      2.00000
     18       3.9994      2.00000
     19       4.2948      2.00000
     20       4.4048      2.00000
     21       5.6994     -0.00000
     22       5.8424     -0.00000
     23       6.4145      0.00000
     24       6.6436      0.00000

 k-point    13 :       0.1250   -0.1250    0.2500
  band No.  band energies     occupation 
      1     -48.0307      2.00000
      2     -48.0002      2.00000
      3     -47.8880      2.00000
      4     -47.8572      2.00000
      5     -47.8013      2.00000
      6     -47.7654      2.00000
      7      -9.6152      2.00000
      8      -8.8151      2.00000
      9      -0.6552      2.00000
     10       0.1723      2.00000
     11       0.6018      2.00000
     12       0.8389      2.00000
     13       1.3299      2.00000
     14       1.7552      2.00000
     15       2.3579      2.00000
     16       4.1339      2.00000
     17       4.2389      2.00000
     18       4.2960      2.00000
     19       4.8829      2.04590
     20       4.9093      2.06237
     21       5.7924     -0.00000
     22       5.9806     -0.00000
     23       6.6096      0.00000
     24       6.9959      0.00000

 k-point    14 :       0.3750   -0.1250    0.2500
  band No.  band energies     occupation 
      1     -48.0120      2.00000
      2     -47.9533      2.00000
      3     -47.9385      2.00000
      4     -47.8790      2.00000
      5     -47.7905      2.00000
      6     -47.7754      2.00000
      7      -9.0901      2.00000
      8      -8.7342      2.00000
      9      -0.6411      2.00000
     10      -0.4607      2.00000
     11       0.5699      2.00000
     12       0.9489      2.00000
     13       1.1267      2.00000
     14       1.4999      2.00000
     15       2.9897      2.00000
     16       3.5026      2.00000
     17       3.8812      2.00000
     18       3.9994      2.00000
     19       4.2948      2.00000
     20       4.4048      2.00000
     21       5.6994     -0.00000
     22       5.8424     -0.00000
     23       6.4145      0.00000
     24       6.6436      0.00000

 k-point    15 :      -0.3750   -0.1250    0.2500
  band No.  band energies     occupation 
      1     -48.0120      2.00000
      2     -47.9533      2.00000
      3     -47.9385      2.00000
      4     -47.8790      2.00000
      5     -47.7905      2.00000
      6     -47.7754      2.00000
      7      -9.0901      2.00000
      8      -8.7342      2.00000
      9      -0.6411      2.00000
     10      -0.4607      2.00000
     11       0.5699      2.00000
     12       0.9489      2.00000
     13       1.1267      2.00000
     14       1.4999      2.00000
     15       2.9897      2.00000
     16       3.5026      2.00000
     17       3.8812      2.00000
     18       3.9994      2.00000
     19       4.2948      2.00000
     20       4.4048      2.00000
     21       5.6994     -0.00000
     22       5.8424     -0.00000
     23       6.4145      0.00000
     24       6.6436      0.00000

 k-point    16 :      -0.1250   -0.1250    0.2500
  band No.  band energies     occupation 
      1     -48.0307      2.00000
      2     -48.0002      2.00000
      3     -47.8880      2.00000
      4     -47.8572      2.00000
      5     -47.8013      2.00000
      6     -47.7654      2.00000
      7      -9.6152      2.00000
      8      -8.8151      2.00000
      9      -0.6552      2.00000
     10       0.1723      2.00000
     11       0.6018      2.00000
     12       0.8389      2.00000
     13       1.3299      2.00000
     14       1.7552      2.00000
     15       2.3579      2.00000
     16       4.1339      2.00000
     17       4.2389      2.00000
     18       4.2960      2.00000
     19       4.8829      2.04590
     20       4.9093      2.06237
     21       5.7924     -0.00000
     22       5.9806     -0.00000
     23       6.6096      0.00000
     24       6.9959      0.00000

 k-point    17 :       0.1250    0.1250   -0.2500
  band No.  band energies     occupation 
      1     -48.0307      2.00000
      2     -48.0002      2.00000
      3     -47.8880      2.00000
      4     -47.8572      2.00000
      5     -47.8013      2.00000
      6     -47.7654      2.00000
      7      -9.6152      2.00000
      8      -8.8151      2.00000
      9      -0.6552      2.00000
     10       0.1723      2.00000
     11       0.6018      2.00000
     12       0.8389      2.00000
     13       1.3299      2.00000
     14       1.7552      2.00000
     15       2.3579      2.00000
     16       4.1339      2.00000
     17       4.2389      2.00000
     18       4.2960      2.00000
     19       4.8829      2.04590
     20       4.9093      2.06237
     21       5.7924     -0.00000
     22       5.9806     -0.00000
     23       6.6096      0.00000
     24       6.9959      0.00000

 k-point    18 :       0.3750    0.1250   -0.2500
  band No.  band energies     occupation 
      1     -48.0120      2.00000
      2     -47.9533      2.00000
      3     -47.9385      2.00000
      4     -47.8790      2.00000
      5     -47.7905      2.00000
      6     -47.7754      2.00000
      7      -9.0901      2.00000
      8      -8.7342      2.00000
      9      -0.6411      2.00000
     10      -0.4607      2.00000
     11       0.5699      2.00000
     12       0.9489      2.00000
     13       1.1267      2.00000
     14       1.4999      2.00000
     15       2.9897      2.00000
     16       3.5026      2.00000
     17       3.8812      2.00000
     18       3.9994      2.00000
     19       4.2948      2.00000
     20       4.4048      2.00000
     21       5.6994     -0.00000
     22       5.8424     -0.00000
     23       6.4145      0.00000
     24       6.6436      0.00000

 k-point    19 :      -0.3750    0.1250   -0.2500
  band No.  band energies     occupation 
      1     -48.0120      2.00000
      2     -47.9533      2.00000
      3     -47.9385      2.00000
      4     -47.8790      2.00000
      5     -47.7905      2.00000
      6     -47.7754      2.00000
      7      -9.0901      2.00000
      8      -8.7342      2.00000
      9      -0.6411      2.00000
     10      -0.4607      2.00000
     11       0.5699      2.00000
     12       0.9489      2.00000
     13       1.1267      2.00000
     14       1.4999      2.00000
     15       2.9897      2.00000
     16       3.5026      2.00000
     17       3.8812      2.00000
     18       3.9994      2.00000
     19       4.2948      2.00000
     20       4.4048      2.00000
     21       5.6994     -0.00000
     22       5.8424     -0.00000
     23       6.4145      0.00000
     24       6.6436      0.00000

 k-point    20 :      -0.1250    0.1250   -0.2500
  band No.  band energies     occupation 
      1     -48.0307      2.00000
      2     -48.0002      2.00000
      3     -47.8880      2.00000
      4     -47.8572      2.00000
      5     -47.8013      2.00000
      6     -47.7654      2.00000
      7      -9.6152      2.00000
      8      -8.8151      2.00000
      9      -0.6552      2.00000
     10       0.1723      2.00000
     11       0.6018      2.00000
     12       0.8389      2.00000
     13       1.3299      2.00000
     14       1.7552      2.00000
     15       2.3579      2.00000
     16       4.1339      2.00000
     17       4.2389      2.00000
     18       4.2960      2.00000
     19       4.8829      2.04590
     20       4.9093      2.06237
     21       5.7924     -0.00000
     22       5.9806     -0.00000
     23       6.6096      0.00000
     24       6.9959      0.00000

 k-point    21 :       0.1250    0.3750   -0.2500
  band No.  band energies     occupation 
      1     -48.0120      2.00000
      2     -47.9533      2.00000
      3     -47.9385      2.00000
      4     -47.8790      2.00000
      5     -47.7905      2.00000
      6     -47.7754      2.00000
      7      -9.0901      2.00000
      8      -8.7342      2.00000
      9      -0.6411      2.00000
     10      -0.4607      2.00000
     11       0.5699      2.00000
     12       0.9489      2.00000
     13       1.1267      2.00000
     14       1.4999      2.00000
     15       2.9897      2.00000
     16       3.5026      2.00000
     17       3.8812      2.00000
     18       3.9994      2.00000
     19       4.2948      2.00000
     20       4.4048      2.00000
     21       5.6994     -0.00000
     22       5.8424     -0.00000
     23       6.4145      0.00000
     24       6.6436      0.00000

 k-point    22 :       0.3750    0.3750   -0.2500
  band No.  band energies     occupation 
      1     -48.0479      2.00000
      2     -48.0238      2.00000
      3     -47.8703      2.00000
      4     -47.8456      2.00000
      5     -47.7858      2.00000
      6     -47.7794      2.00000
      7      -8.6976      2.00000
      8      -8.5405      2.00000
      9      -0.8293      2.00000
     10      -0.6216      2.00000
     11       0.6514      2.00000
     12       0.9960      2.00000
     13       1.3407      2.00000
     14       1.5688      2.00000
     15       2.9650      2.00000
     16       3.1091      2.00000
     17       3.2424      2.00000
     18       3.3935      2.00000
     19       4.3320      2.00000
     20       4.6741      2.00000
     21       5.0186     -0.06646
     22       5.0352     -0.06012
     23       9.9917      0.00000
     24      10.9921      0.00000

 k-point    23 :      -0.3750    0.3750   -0.2500
  band No.  band energies     occupation 
      1     -48.0479      2.00000
      2     -48.0238      2.00000
      3     -47.8703      2.00000
      4     -47.8456      2.00000
      5     -47.7858      2.00000
      6     -47.7794      2.00000
      7      -8.6976      2.00000
      8      -8.5405      2.00000
      9      -0.8293      2.00000
     10      -0.6216      2.00000
     11       0.6514      2.00000
     12       0.9960      2.00000
     13       1.3407      2.00000
     14       1.5688      2.00000
     15       2.9650      2.00000
     16       3.1091      2.00000
     17       3.2424      2.00000
     18       3.3935      2.00000
     19       4.3320      2.00000
     20       4.6741      2.00000
     21       5.0101     -0.03601
     22       5.0211     -0.06964
     23       6.1220     -0.00000
     24       6.2246     -0.00000

 k-point    24 :      -0.1250    0.3750   -0.2500
  band No.  band energies     occupation 
      1     -48.0120      2.00000
      2     -47.9533      2.00000
      3     -47.9385      2.00000
      4     -47.8790      2.00000
      5     -47.7905      2.00000
      6     -47.7754      2.00000
      7      -9.0901      2.00000
      8      -8.7342      2.00000
      9      -0.6411      2.00000
     10      -0.4607      2.00000
     11       0.5699      2.00000
     12       0.9489      2.00000
     13       1.1267      2.00000
     14       1.4999      2.00000
     15       2.9897      2.00000
     16       3.5026      2.00000
     17       3.8812      2.00000
     18       3.9994      2.00000
     19       4.2948      2.00000
     20       4.4048      2.00000
     21       5.6994     -0.00000
     22       5.8424     -0.00000
     23       6.4145      0.00000
     24       6.6436      0.00000

 k-point    25 :       0.1250   -0.3750   -0.2500
  band No.  band energies     occupation 
      1     -48.0120      2.00000
      2     -47.9533      2.00000
      3     -47.9385      2.00000
      4     -47.8790      2.00000
      5     -47.7905      2.00000
      6     -47.7754      2.00000
      7      -9.0901      2.00000
      8      -8.7342      2.00000
      9      -0.6411      2.00000
     10      -0.4607      2.00000
     11       0.5699      2.00000
     12       0.9489      2.00000
     13       1.1267      2.00000
     14       1.4999      2.00000
     15       2.9897      2.00000
     16       3.5026      2.00000
     17       3.8812      2.00000
     18       3.9994      2.00000
     19       4.2948      2.00000
     20       4.4048      2.00000
     21       5.6994     -0.00000
     22       5.8424     -0.00000
     23       6.4145      0.00000
     24       6.6436      0.00000

 k-point    26 :       0.3750   -0.3750   -0.2500
  band No.  band energies     occupation 
      1     -48.0479      2.00000
      2     -48.0238      2.00000
      3     -47.8703      2.00000
      4     -47.8456      2.00000
      5     -47.7858      2.00000
      6     -47.7794      2.00000
      7      -8.6976      2.00000
      8      -8.5405      2.00000
      9      -0.8293      2.00000
     10      -0.6216      2.00000
     11       0.6514      2.00000
     12       0.9960      2.00000
     13       1.3407      2.00000
     14       1.5688      2.00000
     15       2.9650      2.00000
     16       3.1091      2.00000
     17       3.2424      2.00000
     18       3.3935      2.00000
     19       4.3320      2.00000
     20       4.6741      2.00000
     21       5.0101     -0.03601
     22       5.0211     -0.06964
     23       6.1220     -0.00000
     24       6.2246     -0.00000

 k-point    27 :      -0.3750   -0.3750   -0.2500
  band No.  band energies     occupation 
      1     -48.0479      2.00000
      2     -48.0238      2.00000
      3     -47.8703      2.00000
      4     -47.8456      2.00000
      5     -47.7858      2.00000
      6     -47.7794      2.00000
      7      -8.6976      2.00000
      8      -8.5405      2.00000
      9      -0.8293      2.00000
     10      -0.6216      2.00000
     11       0.6514      2.00000
     12       0.9960      2.00000
     13       1.3407      2.00000
     14       1.5688      2.00000
     15       2.9650      2.00000
     16       3.1091      2.00000
     17       3.2424      2.00000
     18       3.3935      2.00000
     19       4.3320      2.00000
     20       4.6741      2.00000
     21       5.0101     -0.03601
     22       5.0211     -0.06964
     23       6.1220     -0.00000
     24       6.2246     -0.00000

 k-point    28 :      -0.1250   -0.3750   -0.2500
  band No.  band energies     occupation 
      1     -48.0120      2.00000
      2     -47.9533      2.00000
      3     -47.9385      2.00000
      4     -47.8790      2.00000
      5     -47.7905      2.00000
      6     -47.7754      2.00000
      7      -9.0901      2.00000
      8      -8.7342      2.00000
      9      -0.6411      2.00000
     10      -0.4607      2.00000
     11       0.5699      2.00000
     12       0.9489      2.00000
     13       1.1267      2.00000
     14       1.4999      2.00000
     15       2.9897      2.00000
     16       3.5026      2.00000
     17       3.8812      2.00000
     18       3.9994      2.00000
     19       4.2948      2.00000
     20       4.4048      2.00000
     21       5.6994     -0.00000
     22       5.8424     -0.00000
     23       6.4145      0.00000
     24       6.6436      0.00000

 k-point    29 :       0.1250   -0.1250   -0.2500
  band No.  band energies     occupation 
      1     -48.0307      2.00000
      2     -48.0002      2.00000
      3     -47.8880      2.00000
      4     -47.8572      2.00000
      5     -47.8013      2.00000
      6     -47.7654      2.00000
      7      -9.6152      2.00000
      8      -8.8151      2.00000
      9      -0.6552      2.00000
     10       0.1723      2.00000
     11       0.6018      2.00000
     12       0.8389      2.00000
     13       1.3299      2.00000
     14       1.7552      2.00000
     15       2.3579      2.00000
     16       4.1339      2.00000
     17       4.2389      2.00000
     18       4.2960      2.00000
     19       4.8829      2.04590
     20       4.9093      2.06237
     21       5.7924     -0.00000
     22       5.9806     -0.00000
     23       6.6096      0.00000
     24       6.9959      0.00000

 k-point    30 :       0.3750   -0.1250   -0.2500
  band No.  band energies     occupation 
      1     -48.0120      2.00000
      2     -47.9533      2.00000
      3     -47.9385      2.00000
      4     -47.8790      2.00000
      5     -47.7905      2.00000
      6     -47.7754      2.00000
      7      -9.0901      2.00000
      8      -8.7342      2.00000
      9      -0.6411      2.00000
     10      -0.4607      2.00000
     11       0.5699      2.00000
     12       0.9489      2.00000
     13       1.1267      2.00000
     14       1.4999      2.00000
     15       2.9897      2.00000
     16       3.5026      2.00000
     17       3.8812      2.00000
     18       3.9994      2.00000
     19       4.2948      2.00000
     20       4.4048      2.00000
     21       5.6994     -0.00000
     22       5.8424     -0.00000
     23       6.4145      0.00000
     24       6.6436      0.00000

 k-point    31 :      -0.3750   -0.1250   -0.2500
  band No.  band energies     occupation 
      1     -48.0120      2.00000
      2     -47.9533      2.00000
      3     -47.9385      2.00000
      4     -47.8790      2.00000
      5     -47.7905      2.00000
      6     -47.7754      2.00000
      7      -9.0901      2.00000
      8      -8.7342      2.00000
      9      -0.6411      2.00000
     10      -0.4607      2.00000
     11       0.5699      2.00000
     12       0.9489      2.00000
     13       1.1267      2.00000
     14       1.4999      2.00000
     15       2.9897      2.00000
     16       3.5026      2.00000
     17       3.8812      2.00000
     18       3.9994      2.00000
     19       4.2948      2.00000
     20       4.4048      2.00000
     21       5.6994     -0.00000
     22       5.8424     -0.00000
     23       6.4145      0.00000
     24       6.6436      0.00000

 k-point    32 :      -0.1250   -0.1250   -0.2500
  band No.  band energies     occupation 
      1     -48.0307      2.00000
      2     -48.0002      2.00000
      3     -47.8880      2.00000
      4     -47.8572      2.00000
      5     -47.8013      2.00000
      6     -47.7654      2.00000
      7      -9.6152      2.00000
      8      -8.8151      2.00000
      9      -0.6552      2.00000
     10       0.1723      2.00000
     11       0.6018      2.00000
     12       0.8389      2.00000
     13       1.3299      2.00000
     14       1.7552      2.00000
     15       2.3579      2.00000
     16       4.1339      2.00000
     17       4.2389      2.00000
     18       4.2960      2.00000
     19       4.8829      2.04590
     20       4.9093      2.06237
     21       5.7924     -0.00000
     22       5.9806     -0.00000
     23       6.6096      0.00000
     24       6.9959      0.00000


--------------------------------------------------------------------------------------------------------


 soft charge-density along one line, spin component           1
         0         1         2         3         4         5         6         7         8         9
 total charge-density along one line

 pseudopotential strength for first ion, spin component:           1
-47.378  -0.000   0.000   8.565   0.000  -0.000  -0.000  -0.009
 -0.000 -47.253  -0.000   0.000   8.514   0.000  -0.000   0.000
  0.000  -0.000 -47.378  -0.000   0.000   8.565   0.000  -0.000
  8.565   0.000  -0.000   5.436   0.000  -0.000   0.000   0.002
  0.000   8.514   0.000   0.000   5.448   0.000   0.000  -0.000
 -0.000   0.000   8.565  -0.000   0.000   5.436  -0.000   0.000
 -0.000  -0.000   0.000   0.000   0.000  -0.000  -4.107  -0.000
 -0.009   0.000  -0.000   0.002  -0.000   0.000  -0.000  -4.043
 -0.000   0.000   0.000   0.000  -0.000  -0.000  -0.000  -0.000
 -0.000  -0.000   0.009   0.000   0.000  -0.002  -0.000   0.000
 -0.000   0.009  -0.000   0.000  -0.002   0.000   0.000   0.000
 -0.000  -0.000   0.000   0.000   0.000  -0.000  -4.592  -0.000
 -0.009   0.000  -0.000   0.002  -0.000   0.000  -0.000  -4.529
 -0.000   0.000   0.000   0.000  -0.000  -0.000  -0.000  -0.000
 -0.000  -0.000   0.009   0.000   0.000  -0.002  -0.000   0.000
 -0.000   0.009  -0.000   0.000  -0.002   0.000   0.000   0.000
 -0.000  -0.000   0.000  -0.000  -0.000   0.000  -0.000   0.000
 -0.000  -0.000   0.000  -0.000  -0.000   0.000  -0.000   0.000
 total augmentation occupancy for first ion, spin component:           1
  2.000   0.000   0.000   0.000   0.000   0.000   0.000   0.000   0.000   0.000   0.000   0.000   0.000   0.000   0.000   0.000
  0.000   2.000   0.000   0.000   0.000   0.000   0.000   0.000   0.000   0.000   0.000   0.000   0.000   0.000   0.000   0.000
  0.000   0.000   2.000   0.000   0.000   0.000   0.000   0.000   0.000   0.000   0.000   0.000   0.000   0.000   0.000   0.000
  0.000   0.000   0.000   0.000   0.000   0.000   0.000   0.000   0.000   0.000   0.000   0.000   0.000   0.000   0.000   0.000
  0.000   0.000   0.000   0.000   0.000   0.000   0.000   0.000   0.000   0.000   0.000   0.000   0.000   0.000   0.000   0.000
  0.000   0.000   0.000   0.000   0.000   0.000   0.000   0.000   0.000   0.000   0.000   0.000   0.000   0.000   0.000   0.000
  0.000   0.000   0.000   0.000   0.000   0.000   1.400   0.000   0.000   0.000   0.000   0.000   0.000   0.000   0.000   0.000
  0.000   0.000   0.000   0.000   0.000   0.000   0.000   1.400   0.000   0.000   0.000   0.000   0.000   0.000   0.000   0.000
  0.000   0.000   0.000   0.000   0.000   0.000   0.000   0.000   1.400   0.000   0.000   0.000   0.000   0.000   0.000   0.000
  0.000   0.000   0.000   0.000   0.000   0.000   0.000   0.000   0.000   1.400   0.000   0.000   0.000   0.000   0.000   0.000
  0.000   0.000   0.000   0.000   0.000   0.000   0.000   0.000   0.000   0.000   1.400   0.000   0.000   0.000   0.000   0.000
  0.000   0.000   0.000   0.000   0.000   0.000   0.000   0.000   0.000   0.000   0.000   0.000   0.000   0.000   0.000   0.000
  0.000   0.000   0.000   0.000   0.000   0.000   0.000   0.000   0.000   0.000   0.000   0.000   0.000   0.000   0.000   0.000
  0.000   0.000   0.000   0.000   0.000   0.000   0.000   0.000   0.000   0.000   0.000   0.000   0.000   0.000   0.000   0.000
  0.000   0.000   0.000   0.000   0.000   0.000   0.000   0.000   0.000   0.000   0.000   0.000   0.000   0.000   0.000   0.000
  0.000   0.000   0.000   0.000   0.000   0.000   0.000   0.000   0.000   0.000   0.000   0.000   0.000   0.000   0.000   0.000
  0.000   0.000   0.000   0.000   0.000   0.000   0.000   0.000   0.000   0.000   0.000   0.000   0.000   0.000   0.000   0.000
  0.000   0.000   0.000   0.000   0.000   0.000   0.000   0.000   0.000   0.000   0.000   0.000   0.000   0.000   0.000   0.000


----------------------------------------- Iteration    1(   2)  ---------------------------------------


    EDDIAG:  cpu time    0.6363: real time    0.6370
  RMM-DIIS:  cpu time    0.7744: real time    0.7750
    ORTHCH:  cpu time    0.0499: real time    0.0499
       DOS:  cpu time    0.0011: real time    0.0011
    --------------------------------------------
      LOOP:  cpu time    1.4696: real time    1.4709

 eigenvalue-minimisations  :    29
 total energy-change (2. order) : 0.6557272E-04  ( 0.6636501E-04)
 number of electron      39.9999973 magnetization 
 augmentation part       39.9999973 magnetization 

 Free energy of the ion-electron system (eV)
  ---------------------------------------------------
  alpha Z        PSCENC =       150.82517259
  Ewald energy   TEWEN  =     -2417.27147393
  -Hartree energ DENC   =     -2615.93882813
  -exchange      EXHF   =         0.00000000
  -V(xc)+E(xc)   XCENC  =       140.15897770
  PAW double counting   =      5153.03625999    -5306.93080730
  entropy T*S    EENTRO =         0.00527232
  eigenvalues    EBANDS =      -557.40032080
  atomic energy  EATOM  =      5428.96091767
  Solvation  Ediel_sol  =         0.00000000
  ---------------------------------------------------
  free energy    TOTEN  =       -24.55482989 eV

  energy without entropy =      -24.56010222  energy(sigma->0) =      -24.55658734


--------------------------------------------------------------------------------------------------------




 average (electrostatic) potential at core
  the test charge radii are     0.9500  1.0808
  (the norm of the test charge is              1.0000)
       1 -78.3754       2 -78.3754       3 -54.1411       4 -54.1411



 E-fermi :   4.9620     XC(G=0): -10.0246     alpha+bet :-10.5776


 k-point     1 :       0.1250    0.1250    0.2500
  band No.  band energies     occupation 
      1     -48.0307      2.00000
      2     -48.0002      2.00000
      3     -47.8880      2.00000
      4     -47.8572      2.00000
      5     -47.8013      2.00000
      6     -47.7654      2.00000
      7      -9.6152      2.00000
      8      -8.8151      2.00000
      9      -0.6552      2.00000
     10       0.1723      2.00000
     11       0.6018      2.00000
     12       0.8389      2.00000
     13       1.3299      2.00000
     14       1.7552      2.00000
     15       2.3579      2.00000
     16       4.1339      2.00000
     17       4.2389      2.00000
     18       4.2960      2.00000
     19       4.8829      2.04768
     20       4.9093      2.05979
     21       5.7924     -0.00000
     22       5.9806     -0.00000
     23       6.6096      0.00000
     24       6.9959      0.00000

 k-point     2 :       0.3750    0.1250    0.2500
  band No.  band energies     occupation 
      1     -48.0120      2.00000
      2     -47.9533      2.00000
      3     -47.9385      2.00000
      4     -47.8790      2.00000
      5     -47.7905      2.00000
      6     -47.7754      2.00000
      7      -9.0901      2.00000
      8      -8.7342      2.00000
      9      -0.6411      2.00000
     10      -0.4607      2.00000
     11       0.5699      2.00000
     12       0.9489      2.00000
     13       1.1267      2.00000
     14       1.4999      2.00000
     15       2.9897      2.00000
     16       3.5026      2.00000
     17       3.8812      2.00000
     18       3.9994      2.00000
     19       4.2948      2.00000
     20       4.4048      2.00000
     21       5.6994     -0.00000
     22       5.8424     -0.00000
     23       6.4145      0.00000
     24       6.6436      0.00000

 k-point     3 :      -0.3750    0.1250    0.2500
  band No.  band energies     occupation 
      1     -48.0120      2.00000
      2     -47.9533      2.00000
      3     -47.9385      2.00000
      4     -47.8790      2.00000
      5     -47.7905      2.00000
      6     -47.7754      2.00000
      7      -9.0901      2.00000
      8      -8.7342      2.00000
      9      -0.6411      2.00000
     10      -0.4607      2.00000
     11       0.5699      2.00000
     12       0.9489      2.00000
     13       1.1267      2.00000
     14       1.4999      2.00000
     15       2.9897      2.00000
     16       3.5026      2.00000
     17       3.8812      2.00000
     18       3.9994      2.00000
     19       4.2948      2.00000
     20       4.4048      2.00000
     21       5.6994     -0.00000
     22       5.8424     -0.00000
     23       6.4145      0.00000
     24       6.6436      0.00000

 k-point     4 :      -0.1250    0.1250    0.2500
  band No.  band energies     occupation 
      1     -48.0307      2.00000
      2     -48.0002      2.00000
      3     -47.8880      2.00000
      4     -47.8572      2.00000
      5     -47.8013      2.00000
      6     -47.7654      2.00000
      7      -9.6152      2.00000
      8      -8.8151      2.00000
      9      -0.6552      2.00000
     10       0.1723      2.00000
     11       0.6018      2.00000
     12       0.8389      2.00000
     13       1.3299      2.00000
     14       1.7552      2.00000
     15       2.3579      2.00000
     16       4.1339      2.00000
     17       4.2389      2.00000
     18       4.2960      2.00000
     19       4.8829      2.04768
     20       4.9093      2.05979
     21       5.7924     -0.00000
     22       5.9806     -0.00000
     23       6.6096      0.00000
     24       6.9959      0.00000

 k-point     5 :       0.1250    0.3750    0.2500
  band No.  band energies     occupation 
      1     -48.0120      2.00000
      2     -47.9533      2.00000
      3     -47.9385      2.00000
      4     -47.8790      2.00000
      5     -47.7905      2.00000
      6     -47.7754      2.00000
      7      -9.0901      2.00000
      8      -8.7342      2.00000
      9      -0.6411      2.00000
     10      -0.4607      2.00000
     11       0.5699      2.00000
     12       0.9489      2.00000
     13       1.1267      2.00000
     14       1.4999      2.00000
     15       2.9897      2.00000
     16       3.5026      2.00000
     17       3.8812      2.00000
     18       3.9994      2.00000
     19       4.2948      2.00000
     20       4.4048      2.00000
     21       5.6994     -0.00000
     22       5.8424     -0.00000
     23       6.4145      0.00000
     24       6.6436      0.00000

 k-point     6 :       0.3750    0.3750    0.2500
  band No.  band energies     occupation 
      1     -48.0479      2.00000
      2     -48.0238      2.00000
      3     -47.8703      2.00000
      4     -47.8456      2.00000
      5     -47.7858      2.00000
      6     -47.7794      2.00000
      7      -8.6976      2.00000
      8      -8.5405      2.00000
      9      -0.8293      2.00000
     10      -0.6216      2.00000
     11       0.6514      2.00000
     12       0.9960      2.00000
     13       1.3407      2.00000
     14       1.5688      2.00000
     15       2.9650      2.00000
     16       3.1091      2.00000
     17       3.2424      2.00000
     18       3.3935      2.00000
     19       4.3320      2.00000
     20       4.6741      2.00000
     21       5.0101     -0.04124
     22       5.0211     -0.07033
     23       6.1220     -0.00000
     24       6.2246     -0.00000

 k-point     7 :      -0.3750    0.3750    0.2500
  band No.  band energies     occupation 
      1     -48.0479      2.00000
      2     -48.0238      2.00000
      3     -47.8703      2.00000
      4     -47.8456      2.00000
      5     -47.7858      2.00000
      6     -47.7794      2.00000
      7      -8.6976      2.00000
      8      -8.5405      2.00000
      9      -0.8293      2.00000
     10      -0.6216      2.00000
     11       0.6514      2.00000
     12       0.9960      2.00000
     13       1.3407      2.00000
     14       1.5688      2.00000
     15       2.9650      2.00000
     16       3.1091      2.00000
     17       3.2424      2.00000
     18       3.3935      2.00000
     19       4.3320      2.00000
     20       4.6741      2.00000
     21       5.0101     -0.04124
     22       5.0211     -0.07033
     23       6.1220     -0.00000
     24       6.2246     -0.00000

 k-point     8 :      -0.1250    0.3750    0.2500
  band No.  band energies     occupation 
      1     -48.0120      2.00000
      2     -47.9533      2.00000
      3     -47.9385      2.00000
      4     -47.8790      2.00000
      5     -47.7905      2.00000
      6     -47.7754      2.00000
      7      -9.0901      2.00000
      8      -8.7342      2.00000
      9      -0.6411      2.00000
     10      -0.4607      2.00000
     11       0.5699      2.00000
     12       0.9489      2.00000
     13       1.1267      2.00000
     14       1.4999      2.00000
     15       2.9897      2.00000
     16       3.5026      2.00000
     17       3.8812      2.00000
     18       3.9994      2.00000
     19       4.2948      2.00000
     20       4.4048      2.00000
     21       5.6994     -0.00000
     22       5.8424     -0.00000
     23       6.4145      0.00000
     24       6.6436      0.00000

 k-point     9 :       0.1250   -0.3750    0.2500
  band No.  band energies     occupation 
      1     -48.0120      2.00000
      2     -47.9533      2.00000
      3     -47.9385      2.00000
      4     -47.8790      2.00000
      5     -47.7905      2.00000
      6     -47.7754      2.00000
      7      -9.0901      2.00000
      8      -8.7342      2.00000
      9      -0.6411      2.00000
     10      -0.4607      2.00000
     11       0.5699      2.00000
     12       0.9489      2.00000
     13       1.1267      2.00000
     14       1.4999      2.00000
     15       2.9897      2.00000
     16       3.5026      2.00000
     17       3.8812      2.00000
     18       3.9994      2.00000
     19       4.2948      2.00000
     20       4.4048      2.00000
     21       5.6994     -0.00000
     22       5.8424     -0.00000
     23       6.4145      0.00000
     24       6.6436      0.00000

 k-point    10 :       0.3750   -0.3750    0.2500
  band No.  band energies     occupation 
      1     -48.0479      2.00000
      2     -48.0238      2.00000
      3     -47.8703      2.00000
      4     -47.8456      2.00000
      5     -47.7858      2.00000
      6     -47.7794      2.00000
      7      -8.6976      2.00000
      8      -8.5405      2.00000
      9      -0.8293      2.00000
     10      -0.6216      2.00000
     11       0.6514      2.00000
     12       0.9960      2.00000
     13       1.3407      2.00000
     14       1.5688      2.00000
     15       2.9650      2.00000
     16       3.1091      2.00000
     17       3.2424      2.00000
     18       3.3935      2.00000
     19       4.3320      2.00000
     20       4.6741      2.00000
     21       5.0101     -0.04124
     22       5.0211     -0.07033
     23       6.1220     -0.00000
     24       6.2246     -0.00000

 k-point    11 :      -0.3750   -0.3750    0.2500
  band No.  band energies     occupation 
      1     -48.0479      2.00000
      2     -48.0238      2.00000
      3     -47.8703      2.00000
      4     -47.8456      2.00000
      5     -47.7858      2.00000
      6     -47.7794      2.00000
      7      -8.6976      2.00000
      8      -8.5405      2.00000
      9      -0.8293      2.00000
     10      -0.6216      2.00000
     11       0.6514      2.00000
     12       0.9960      2.00000
     13       1.3407      2.00000
     14       1.5688      2.00000
     15       2.9650      2.00000
     16       3.1091      2.00000
     17       3.2424      2.00000
     18       3.3935      2.00000
     19       4.3320      2.00000
     20       4.6741      2.00000
     21       5.0101     -0.04124
     22       5.0211     -0.07033
     23       6.1220     -0.00000
     24       6.2246     -0.00000

 k-point    12 :      -0.1250   -0.3750    0.2500
  band No.  band energies     occupation 
      1     -48.0120      2.00000
      2     -47.9533      2.00000
      3     -47.9385      2.00000
      4     -47.8790      2.00000
      5     -47.7905      2.00000
      6     -47.7754      2.00000
      7      -9.0901      2.00000
      8      -8.7342      2.00000
      9      -0.6411      2.00000
     10      -0.4607      2.00000
     11       0.5699      2.00000
     12       0.9489      2.00000
     13       1.1267      2.00000
     14       1.4999      2.00000
     15       2.9897      2.00000
     16       3.5026      2.00000
     17       3.8812      2.00000
     18       3.9994      2.00000
     19       4.2948      2.00000
     20       4.4048      2.00000
     21       5.6994     -0.00000
     22       5.8424     -0.00000
     23       6.4145      0.00000
     24       6.6436      0.00000

 k-point    13 :       0.1250   -0.1250    0.2500
  band No.  band energies     occupation 
      1     -48.0307      2.00000
      2     -48.0002      2.00000
      3     -47.8880      2.00000
      4     -47.8572      2.00000
      5     -47.8013      2.00000
      6     -47.7654      2.00000
      7      -9.6152      2.00000
      8      -8.8151      2.00000
      9      -0.6552      2.00000
     10       0.1723      2.00000
     11       0.6018      2.00000
     12       0.8389      2.00000
     13       1.3299      2.00000
     14       1.7552      2.00000
     15       2.3579      2.00000
     16       4.1339      2.00000
     17       4.2389      2.00000
     18       4.2960      2.00000
     19       4.8829      2.04768
     20       4.9093      2.05979
     21       5.7924     -0.00000
     22       5.9806     -0.00000
     23       6.6096      0.00000
     24       6.9959      0.00000

 k-point    14 :       0.3750   -0.1250    0.2500
  band No.  band energies     occupation 
      1     -48.0120      2.00000
      2     -47.9533      2.00000
      3     -47.9385      2.00000
      4     -47.8790      2.00000
      5     -47.7905      2.00000
      6     -47.7754      2.00000
      7      -9.0901      2.00000
      8      -8.7342      2.00000
      9      -0.6411      2.00000
     10      -0.4607      2.00000
     11       0.5699      2.00000
     12       0.9489      2.00000
     13       1.1267      2.00000
     14       1.4999      2.00000
     15       2.9897      2.00000
     16       3.5026      2.00000
     17       3.8812      2.00000
     18       3.9994      2.00000
     19       4.2948      2.00000
     20       4.4048      2.00000
     21       5.6994     -0.00000
     22       5.8424     -0.00000
     23       6.4145      0.00000
     24       6.6436      0.00000

 k-point    15 :      -0.3750   -0.1250    0.2500
  band No.  band energies     occupation 
      1     -48.0120      2.00000
      2     -47.9533      2.00000
      3     -47.9385      2.00000
      4     -47.8790      2.00000
      5     -47.7905      2.00000
      6     -47.7754      2.00000
      7      -9.0901      2.00000
      8      -8.7342      2.00000
      9      -0.6411      2.00000
     10      -0.4607      2.00000
     11       0.5699      2.00000
     12       0.9489      2.00000
     13       1.1267      2.00000
     14       1.4999      2.00000
     15       2.9897      2.00000
     16       3.5026      2.00000
     17       3.8812      2.00000
     18       3.9994      2.00000
     19       4.2948      2.00000
     20       4.4048      2.00000
     21       5.6994     -0.00000
     22       5.8424     -0.00000
     23       6.4145      0.00000
     24       6.6436      0.00000

 k-point    16 :      -0.1250   -0.1250    0.2500
  band No.  band energies     occupation 
      1     -48.0307      2.00000
      2     -48.0002      2.00000
      3     -47.8880      2.00000
      4     -47.8572      2.00000
      5     -47.8013      2.00000
      6     -47.7654      2.00000
[...]
     15       2.9897      2.00000
     16       3.5026      2.00000
     17       3.8812      2.00000
     18       3.9994      2.00000
     19       4.2948      2.00000
     20       4.4048      2.00000
     21       5.6994     -0.00000
     22       5.8424     -0.00000
     23       6.4145      0.00000
     24       6.6436      0.00000

 k-point    22 :       0.3750    0.3750   -0.2500
  band No.  band energies     occupation 
      1     -48.0479      2.00000
      2     -48.0238      2.00000
      3     -47.8703      2.00000
      4     -47.8456      2.00000
      5     -47.7858      2.00000
      6     -47.7794      2.00000
      7      -8.6976      2.00000
      8      -8.5405      2.00000
      9      -0.8293      2.00000
     10      -0.6216      2.00000
     11       0.6514      2.00000
     12       0.9960      2.00000
     13       1.3407      2.00000
     14       1.5688      2.00000
     15       2.9650      2.00000
     16       3.1091      2.00000
     17       3.2424      2.00000
     18       3.3935      2.00000
     19       4.3320      2.00000
     20       4.6741      2.00000
     21       5.0101     -0.03807
     22       5.0211     -0.06994
     23       9.9502      0.00000
     24      10.6681      0.00000

 k-point    23 :      -0.3750    0.3750   -0.2500
  band No.  band energies     occupation 
      1     -48.0479      2.00000
      2     -48.0238      2.00000
      3     -47.8703      2.00000
      4     -47.8456      2.00000
      5     -47.7858      2.00000
      6     -47.7794      2.00000
      7      -8.6976      2.00000
      8      -8.5405      2.00000
      9      -0.8293      2.00000
     10      -0.6216      2.00000
     11       0.6514      2.00000
     12       0.9960      2.00000
     13       1.3407      2.00000
     14       1.5688      2.00000
     15       2.9650      2.00000
     16       3.1091      2.00000
     17       3.2424      2.00000
     18       3.3935      2.00000
     19       4.3320      2.00000
     20       4.6741      2.00000
     21       5.0101     -0.03807
     22       5.0211     -0.06994
     23       6.1220     -0.00000
     24       6.2246     -0.00000

 k-point    24 :      -0.1250    0.3750   -0.2500
  band No.  band energies     occupation 
      1     -48.0120      2.00000
      2     -47.9533      2.00000
      3     -47.9385      2.00000
      4     -47.8790      2.00000
      5     -47.7905      2.00000
      6     -47.7754      2.00000
      7      -9.0901      2.00000
      8      -8.7342      2.00000
      9      -0.6411      2.00000
     10      -0.4607      2.00000
     11       0.5699      2.00000
     12       0.9489      2.00000
     13       1.1267      2.00000
     14       1.4999      2.00000
     15       2.9897      2.00000
     16       3.5026      2.00000
     17       3.8812      2.00000
     18       3.9994      2.00000
     19       4.2948      2.00000
     20       4.4048      2.00000
     21       5.6994     -0.00000
     22       5.8424     -0.00000
     23       6.4145      0.00000
     24       6.6436      0.00000

 k-point    25 :       0.1250   -0.3750   -0.2500
  band No.  band energies     occupation 
      1     -48.0120      2.00000
      2     -47.9533      2.00000
      3     -47.9385      2.00000
      4     -47.8790      2.00000
      5     -47.7905      2.00000
      6     -47.7754      2.00000
      7      -9.0901      2.00000
      8      -8.7342      2.00000
      9      -0.6411      2.00000
     10      -0.4607      2.00000
     11       0.5699      2.00000
     12       0.9489      2.00000
     13       1.1267      2.00000
     14       1.4999      2.00000
     15       2.9897      2.00000
     16       3.5026      2.00000
     17       3.8812      2.00000
     18       3.9994      2.00000
     19       4.2948      2.00000
     20       4.4048      2.00000
     21       5.6994     -0.00000
     22       5.8424     -0.00000
     23       6.4145      0.00000
     24       6.6436      0.00000

 k-point    26 :       0.3750   -0.3750   -0.2500
  band No.  band energies     occupation 
      1     -48.0479      2.00000
      2     -48.0238      2.00000
      3     -47.8703      2.00000
      4     -47.8456      2.00000
      5     -47.7858      2.00000
      6     -47.7794      2.00000
      7      -8.6976      2.00000
      8      -8.5405      2.00000
      9      -0.8293      2.00000
     10      -0.6216      2.00000
     11       0.6514      2.00000
     12       0.9960      2.00000
     13       1.3407      2.00000
     14       1.5688      2.00000
     15       2.9650      2.00000
     16       3.1091      2.00000
     17       3.2424      2.00000
     18       3.3935      2.00000
     19       4.3320      2.00000
     20       4.6741      2.00000
     21       5.0101     -0.03807
     22       5.0211     -0.06994
     23       6.1220     -0.00000
     24       6.2246     -0.00000

 k-point    27 :      -0.3750   -0.3750   -0.2500
  band No.  band energies     occupation 
      1     -48.0479      2.00000
      2     -48.0238      2.00000
      3     -47.8703      2.00000
      4     -47.8456      2.00000
      5     -47.7858      2.00000
      6     -47.7794      2.00000
      7      -8.6976      2.00000
      8      -8.5405      2.00000
      9      -0.8293      2.00000
     10      -0.6216      2.00000
     11       0.6514      2.00000
     12       0.9960      2.00000
     13       1.3407      2.00000
     14       1.5688      2.00000
     15       2.9650      2.00000
     16       3.1091      2.00000
     17       3.2424      2.00000
     18       3.3935      2.00000
     19       4.3320      2.00000
     20       4.6741      2.00000
     21       5.0101     -0.03807
     22       5.0211     -0.06994
     23       6.1220     -0.00000
     24       6.2246     -0.00000

 k-point    28 :      -0.1250   -0.3750   -0.2500
  band No.  band energies     occupation 
      1     -48.0120      2.00000
      2     -47.9533      2.00000
      3     -47.9385      2.00000
      4     -47.8790      2.00000
      5     -47.7905      2.00000
      6     -47.7754      2.00000
      7      -9.0901      2.00000
      8      -8.7342      2.00000
      9      -0.6411      2.00000
     10      -0.4607      2.00000
     11       0.5699      2.00000
     12       0.9489      2.00000
     13       1.1267      2.00000
     14       1.4999      2.00000
     15       2.9897      2.00000
     16       3.5026      2.00000
     17       3.8812      2.00000
     18       3.9994      2.00000
     19       4.2948      2.00000
     20       4.4048      2.00000
     21       5.6994     -0.00000
     22       5.8424     -0.00000
     23       6.4145      0.00000
     24       6.6436      0.00000

 k-point    29 :       0.1250   -0.1250   -0.2500
  band No.  band energies     occupation 
      1     -48.0307      2.00000
      2     -48.0002      2.00000
      3     -47.8880      2.00000
      4     -47.8572      2.00000
      5     -47.8013      2.00000
      6     -47.7654      2.00000
      7      -9.6152      2.00000
      8      -8.8151      2.00000
      9      -0.6552      2.00000
     10       0.1723      2.00000
     11       0.6018      2.00000
     12       0.8389      2.00000
     13       1.3299      2.00000
     14       1.7552      2.00000
     15       2.3579      2.00000
     16       4.1339      2.00000
     17       4.2389      2.00000
     18       4.2960      2.00000
     19       4.8829      2.04658
     20       4.9093      2.06143
     21       5.7924     -0.00000
     22       5.9806     -0.00000
     23       6.6096      0.00000
     24       6.9959      0.00000

 k-point    30 :       0.3750   -0.1250   -0.2500
  band No.  band energies     occupation 
      1     -48.0120      2.00000
      2     -47.9533      2.00000
      3     -47.9385      2.00000
      4     -47.8790      2.00000
      5     -47.7905      2.00000
      6     -47.7754      2.00000
      7      -9.0901      2.00000
      8      -8.7342      2.00000
      9      -0.6411      2.00000
     10      -0.4607      2.00000
     11       0.5699      2.00000
     12       0.9489      2.00000
     13       1.1267      2.00000
     14       1.4999      2.00000
     15       2.9897      2.00000
     16       3.5026      2.00000
     17       3.8812      2.00000
     18       3.9994      2.00000
     19       4.2948      2.00000
     20       4.4048      2.00000
     21       5.6994     -0.00000
     22       5.8424     -0.00000
     23       6.4145      0.00000
     24       6.6436      0.00000

 k-point    31 :      -0.3750   -0.1250   -0.2500
  band No.  band energies     occupation 
      1     -48.0120      2.00000
      2     -47.9533      2.00000
      3     -47.9385      2.00000
      4     -47.8790      2.00000
      5     -47.7905      2.00000
      6     -47.7754      2.00000
      7      -9.0901      2.00000
      8      -8.7342      2.00000
      9      -0.6411      2.00000
     10      -0.4607      2.00000
     11       0.5699      2.00000
     12       0.9489      2.00000
     13       1.1267      2.00000
     14       1.4999      2.00000
     15       2.9897      2.00000
     16       3.5026      2.00000
     17       3.8812      2.00000
     18       3.9994      2.00000
     19       4.2948      2.00000
     20       4.4048      2.00000
     21       5.6994     -0.00000
     22       5.8424     -0.00000
     23       6.4145      0.00000
     24       6.6436      0.00000

 k-point    32 :      -0.1250   -0.1250   -0.2500
  band No.  band energies     occupation 
      1     -48.0307      2.00000
      2     -48.0002      2.00000
      3     -47.8880      2.00000
      4     -47.8572      2.00000
      5     -47.8013      2.00000
      6     -47.7654      2.00000
      7      -9.6152      2.00000
      8      -8.8151      2.00000
      9      -0.6552      2.00000
     10       0.1723      2.00000
     11       0.6018      2.00000
     12       0.8389      2.00000
     13       1.3299      2.00000
     14       1.7552      2.00000
     15       2.3579      2.00000
     16       4.1339      2.00000
     17       4.2389      2.00000
     18       4.2960      2.00000
     19       4.8829      2.04658
     20       4.9093      2.06143
     21       5.7924     -0.00000
     22       5.9806     -0.00000
     23       6.6096      0.00000
     24       6.9959      0.00000


--------------------------------------------------------------------------------------------------------


 soft charge-density along one line, spin component           1
         0         1         2         3         4         5         6         7         8         9
 total charge-density along one line

 pseudopotential strength for first ion, spin component:           1
-47.378  -0.000   0.000   8.565   0.000  -0.000  -0.000  -0.009
 -0.000 -47.253  -0.000   0.000   8.514   0.000  -0.000   0.000
  0.000  -0.000 -47.378  -0.000   0.000   8.565   0.000  -0.000
  8.565   0.000  -0.000   5.436   0.000  -0.000   0.000   0.002
  0.000   8.514   0.000   0.000   5.448   0.000   0.000  -0.000
 -0.000   0.000   8.565  -0.000   0.000   5.436  -0.000   0.000
 -0.000  -0.000   0.000   0.000   0.000  -0.000  -4.107  -0.000
 -0.009   0.000  -0.000   0.002  -0.000   0.000  -0.000  -4.043
 -0.000   0.000   0.000   0.000  -0.000  -0.000  -0.000  -0.000
 -0.000  -0.000   0.009   0.000   0.000  -0.002  -0.000   0.000
 -0.000   0.009  -0.000   0.000  -0.002   0.000   0.000   0.000
 -0.000  -0.000   0.000   0.000   0.000  -0.000  -4.592  -0.000
 -0.009   0.000  -0.000   0.002  -0.000   0.000  -0.000  -4.529
 -0.000   0.000   0.000   0.000  -0.000  -0.000  -0.000  -0.000
 -0.000  -0.000   0.009   0.000   0.000  -0.002  -0.000   0.000
 -0.000   0.009  -0.000   0.000  -0.002   0.000   0.000   0.000
 -0.000  -0.000   0.000  -0.000  -0.000   0.000  -0.000   0.000
 -0.000  -0.000   0.000  -0.000  -0.000   0.000  -0.000   0.000
 total augmentation occupancy for first ion, spin component:           1
  2.000   0.000   0.000   0.000   0.000   0.000   0.000   0.000   0.000   0.000   0.000   0.000   0.000   0.000   0.000   0.000
  0.000   2.000   0.000   0.000   0.000   0.000   0.000   0.000   0.000   0.000   0.000   0.000   0.000   0.000   0.000   0.000
  0.000   0.000   2.000   0.000   0.000   0.000   0.000   0.000   0.000   0.000   0.000   0.000   0.000   0.000   0.000   0.000
  0.000   0.000   0.000   0.000   0.000   0.000   0.000   0.000   0.000   0.000   0.000   0.000   0.000   0.000   0.000   0.000
  0.000   0.000   0.000   0.000   0.000   0.000   0.000   0.000   0.000   0.000   0.000   0.000   0.000   0.000   0.000   0.000
  0.000   0.000   0.000   0.000   0.000   0.000   0.000   0.000   0.000   0.000   0.000   0.000   0.000   0.000   0.000   0.000
  0.000   0.000   0.000   0.000   0.000   0.000   1.400   0.000   0.000   0.000   0.000   0.000   0.000   0.000   0.000   0.000
  0.000   0.000   0.000   0.000   0.000   0.000   0.000   1.400   0.000   0.000   0.000   0.000   0.000   0.000   0.000   0.000
  0.000   0.000   0.000   0.000   0.000   0.000   0.000   0.000   1.400   0.000   0.000   0.000   0.000   0.000   0.000   0.000
  0.000   0.000   0.000   0.000   0.000   0.000   0.000   0.000   0.000   1.400   0.000   0.000   0.000   0.000   0.000   0.000
  0.000   0.000   0.000   0.000   0.000   0.000   0.000   0.000   0.000   0.000   1.400   0.000   0.000   0.000   0.000   0.000
  0.000   0.000   0.000   0.000   0.000   0.000   0.000   0.000   0.000   0.000   0.000   0.000   0.000   0.000   0.000   0.000
  0.000   0.000   0.000   0.000   0.000   0.000   0.000   0.000   0.000   0.000   0.000   0.000   0.000   0.000   0.000   0.000
  0.000   0.000   0.000   0.000   0.000   0.000   0.000   0.000   0.000   0.000   0.000   0.000   0.000   0.000   0.000   0.000
  0.000   0.000   0.000   0.000   0.000   0.000   0.000   0.000   0.000   0.000   0.000   0.000   0.000   0.000   0.000   0.000
  0.000   0.000   0.000   0.000   0.000   0.000   0.000   0.000   0.000   0.000   0.000   0.000   0.000   0.000   0.000   0.000
  0.000   0.000   0.000   0.000   0.000   0.000   0.000   0.000   0.000   0.000   0.000   0.000   0.000   0.000   0.000   0.000
  0.000   0.000   0.000   0.000   0.000   0.000   0.000   0.000   0.000   0.000   0.000   0.000   0.000   0.000   0.000   0.000


------------------------ aborting loop because EDIFF is reached ----------------------------------------


    CHARGE:  cpu time    0.2999: real time    0.3001
    FORLOC:  cpu time    0.0085: real time    0.0085
    FORNL :  cpu time    0.6588: real time    0.6593
    STRESS:  cpu time    0.8752: real time    0.8759
    FORCOR:  cpu time    0.1207: real time    0.1208
    FORHAR:  cpu time    0.0358: real time    0.0359
    OFIELD:  cpu time    0.0002: real time    0.0002

  FORCE on cell =-STRESS in cart. coord.  units (eV):
  Direction    XX          YY          ZZ          XY          YZ          ZX
  --------------------------------------------------------------------------------------
  Alpha Z   150.82517   150.82517   150.82517
  Ewald     215.36784   215.36784 -2848.00983     0.00000     0.00000    -0.00000
  Hartree  1741.48876  1741.48876  -859.13037     0.00000    -0.00000    -0.00000
  E(xc)    -224.50150  -224.50150  -225.02096     0.00000    -0.00000    -0.00000
  Local   -2604.67771 -2604.67772  3050.49736    -0.00000     0.00000     0.00000
  n-local    23.38921    23.38921    23.64066     0.00000     0.00000     0.00000
  augment   272.52789   272.52789   276.60463     0.00000     0.00000    -0.00000
  Kinetic   428.38788   428.38788   432.86452    -0.00000    -0.00000    -0.00000
  Fock        0.00000     0.00000     0.00000     0.00000     0.00000     0.00000
  -------------------------------------------------------------------------------------
  Total       2.80754     2.80754     2.27118    -0.00000     0.00000     0.00000
  in kB      57.43574    57.43574    46.46311    -0.00001     0.00001     0.00000
  external pressure =       53.78 kB  Pullay stress =        0.00 kB


 VOLUME and BASIS-vectors are now :
 -----------------------------------------------------------------------------
  energy-cutoff  :      300.00
  volume of cell :       78.32
      direct lattice vectors                 reciprocal lattice vectors
     3.651424000  0.000000000  0.000000000     0.273865758  0.000000000  0.000000000
     0.000000000  3.651424000  0.000000000     0.000000000  0.273865758  0.000000000
     0.000000000  0.000000000  5.873946000     0.000000000  0.000000000  0.170243308

  length of vectors
     3.651424000  3.651424000  5.873946000     0.273865758  0.273865758  0.170243308


 FORCES acting on ions
    electron-ion (+dipol)            ewald-force                    non-local-force                 convergence-correction
 -----------------------------------------------------------------------------------------------
   -.322E-06 -.492E-06 -.832E-03   0.165E-13 -.211E-14 0.460E-03   -.941E-07 0.551E-07 -.279E-03   0.299E-06 0.307E-06 0.681E-03
   0.148E-06 0.260E-06 -.831E-03   -.159E-13 0.531E-14 0.460E-03   0.591E-07 -.964E-07 -.279E-03   -.191E-06 -.164E-06 0.681E-03
   0.254E-07 -.332E-06 -.487E+03   0.407E-14 -.309E-14 0.487E+03   -.158E-06 0.665E-06 -.167E+01   0.133E-07 -.129E-07 0.552E+00
   -.750E-07 0.401E-06 0.487E+03   -.290E-14 -.189E-14 -.487E+03   0.174E-06 -.707E-06 0.167E+01   -.492E-08 -.601E-09 -.553E+00
 -----------------------------------------------------------------------------------------------
   -.223E-06 -.164E-06 0.100E-02   0.183E-14 -.178E-14 0.000E+00   -.194E-07 -.832E-07 -.134E-02   0.117E-06 0.130E-06 0.315E-03


 POSITION                                       TOTAL-FORCE (eV/Angst)
 -----------------------------------------------------------------------------------
      0.00000      0.00000      0.00000        -0.000000     -0.000000      0.000037
      1.82571      1.82571      0.00000         0.000000      0.000000      0.000036
      0.00000      1.82571      1.41682        -0.000000      0.000000     -0.366288
      1.82571      0.00000      4.45713         0.000000     -0.000000      0.366215
 -----------------------------------------------------------------------------------
    total drift:                               -0.000000     -0.000000     -0.000024


--------------------------------------------------------------------------------------------------------



  FREE ENERGIE OF THE ION-ELECTRON SYSTEM (eV)
  ---------------------------------------------------
  free  energy   TOTEN  =       -24.55485116 eV

  energy  without entropy=      -24.56013245  energy(sigma->0) =      -24.55661159



--------------------------------------------------------------------------------------------------------


    POTLOK:  cpu time    0.1233: real time    0.1234


--------------------------------------------------------------------------------------------------------


 writing wavefunctions
     LOOP+:  cpu time   14.3386: real time   14.3509
    4ORBIT:  cpu time    0.0000: real time    0.0000

 total amount of memory used by VASP on root node    67040. kBytes
========================================================================

   base      :      30000. kBytes
   nonl-proj :       8648. kBytes
   fftplans  :       5804. kBytes
   grid      :      10312. kBytes
   one-center:         62. kBytes
   wavefun   :      12214. kBytes

  
  
 General timing and accounting informations for this job:
 ========================================================
  
                  Total CPU time used (sec):       15.097
                            User time (sec):       15.061
                          System time (sec):        0.036
                         Elapsed time (sec):       15.112
  
                   Maximum memory used (kb):       61188.
                   Average memory used (kb):           0.
  
                          Minor page faults:        16533
                          Major page faults:            0
                 Voluntary context switches:           39
