<?xml version="1.0" encoding="ISO-8859-1"?>
<modeling>
 <generator>
  <i name="program" type="string">vasp </i>
  <i name="version" type="string">5.4.1  </i>
  <i name="subversion" type="string">24Jun15 (build Mar  6 2017 20:45:23) complex                          parallel </i>
  <i name="platform" type="string">IFC91_ompi </i>
  <i name="date" type="string">2017 10 30 </i>
  <i name="time" type="string">10:55:05 </i>
 </generator>
 <incar>
  <i type="string" name="PREC">accurate</i>
  <i type="string" name="ALGO"> Fast</i>
  <i type="int" name="NSIM">     1</i>
  <i type="int" name="ISPIN">     1</i>
  <i type="int" name="ICHARG">    11</i>
  <i type="int" name="NELM">   100</i>
  <i type="int" name="NELMIN">     5</i>
  <i type="int" name="IBRION">    -1</i>
  <i name="EDIFF">      0.00000001</i>
  <i type="int" name="ISIF">     2</i>
  <i type="int" name="ISYM">    -1</i>
  <i name="ENCUT">    300.00000000</i>
  <i type="int" name="ISMEAR">     1</i>
  <i name="SIGMA">      0.05000000</i>
  <i type="int" name="NWRITE">     3</i>
  <i type="logical" name="LWAVE"> T  </i>
  <v type="int" name="KPOINT_BSE">    -1     0     0     0</v>
  <i type="int" name="NELM">   100</i>
 </incar>
 <kpoints>
  <generation param="Monkhorst-Pack">
   <v type="int" name="divisions">       4        4        2 </v>
   <v name="usershift">      0.00000000       0.00000000       0.00000000 </v>
   <v name="genvec1">      0.25000000       0.00000000       0.00000000 </v>
   <v name="genvec2">      0.00000000       0.25000000       0.00000000 </v>
   <v name="genvec3">      0.00000000       0.00000000       0.50000000 </v>
   <v name="shift">      0.50000000       0.50000000       0.50000000 </v>
  </generation>
  <varray name="kpointlist" >
   <v>       0.12500000       0.12500000       0.25000000 </v>
   <v>       0.37500000       0.12500000       0.25000000 </v>
   <v>      -0.37500000       0.12500000       0.25000000 </v>
   <v>      -0.12500000       0.12500000       0.25000000 </v>
   <v>       0.12500000       0.37500000       0.25000000 </v>
   <v>       0.37500000       0.37500000       0.25000000 </v>
   <v>      -0.37500000       0.37500000       0.25000000 </v>
   <v>      -0.12500000       0.37500000       0.25000000 </v>
   <v>       0.12500000      -0.37500000       0.25000000 </v>
   <v>       0.37500000      -0.37500000       0.25000000 </v>
   <v>      -0.37500000      -0.37500000       0.25000000 </v>
   <v>      -0.12500000      -0.37500000       0.25000000 </v>
   <v>       0.12500000      -0.12500000       0.25000000 </v>
   <v>       0.37500000      -0.12500000       0.25000000 </v>
   <v>      -0.37500000      -0.12500000       0.25000000 </v>
   <v>      -0.12500000      -0.12500000       0.25000000 </v>
   <v>       0.12500000       0.12500000      -0.25000000 </v>
   <v>       0.37500000       0.12500000      -0.25000000 </v>
   <v>      -0.37500000       0.12500000      -0.25000000 </v>
   <v>      -0.12500000       0.12500000      -0.25000000 </v>
   <v>       0.12500000       0.37500000      -0.25000000 </v>
   <v>       0.37500000       0.37500000      -0.25000000 </v>
   <v>      -0.37500000       0.37500000      -0.25000000 </v>
   <v>      -0.12500000       0.37500000      -0.25000000 </v>
   <v>       0.12500000      -0.37500000      -0.25000000 </v>
   <v>       0.37500000      -0.37500000      -0.25000000 </v>
   <v>      -0.37500000      -0.37500000      -0.25000000 </v>
   <v>      -0.12500000      -0.37500000      -0.25000000 </v>
   <v>       0.12500000      -0.12500000      -0.25000000 </v>
   <v>       0.37500000      -0.12500000      -0.25000000 </v>
   <v>      -0.37500000      -0.12500000      -0.25000000 </v>
   <v>      -0.12500000      -0.12500000      -0.25000000 </v>
  </varray>
  <varray name="weights" >
   <v>       0.03125000 </v>
   <v>       0.03125000 </v>
   <v>       0.03125000 </v>
   <v>       0.03125000 </v>
   <v>       0.03125000 </v>
   <v>       0.03125000 </v>
   <v>       0.03125000 </v>
   <v>       0.03125000 </v>
   <v>       0.03125000 </v>
   <v>       0.03125000 </v>
   <v>       0.03125000 </v>
   <v>       0.03125000 </v>
   <v>       0.03125000 </v>
   <v>       0.03125000 </v>
   <v>       0.03125000 </v>
   <v>       0.03125000 </v>
   <v>       0.03125000 </v>
   <v>       0.03125000 </v>
   <v>       0.03125000 </v>
   <v>       0.03125000 </v>
   <v>       0.03125000 </v>
   <v>       0.03125000 </v>
   <v>       0.03125000 </v>
   <v>       0.03125000 </v>
   <v>       0.03125000 </v>
   <v>       0.03125000 </v>
   <v>       0.03125000 </v>
   <v>       0.03125000 </v>
   <v>       0.03125000 </v>
   <v>       0.03125000 </v>
   <v>       0.03125000 </v>
   <v>       0.03125000 </v>
  </varray>
 </kpoints>
 <parameters>
  <separator name="general" >
   <i type="string" name="SYSTEM">unknown system</i>
   <i type="logical" name="LCOMPAT"> F  </i>
  </separator>
  <separator name="electronic" >
   <i type="string" name="PREC">accura</i>
   <i name="ENMAX">    300.00000000</i>
   <i name="ENAUG">    578.34200000</i>
   <i name="EDIFF">      0.00000001</i>
   <i type="int" name="IALGO">    68</i>
   <i type="int" name="IWAVPR">    10</i>
   <i type="int" name="NBANDS">    24</i>
   <i name="NELECT">     40.00000000</i>
   <i type="int" name="TURBO">     0</i>
   <i type="int" name="IRESTART">     0</i>
   <i type="int" name="NREBOOT">     0</i>
   <i type="int" name="NMIN">     0</i>
   <i name="EREF">      0.00000000</i>
   <separator name="electronic smearing" >
    <i type="int" name="ISMEAR">     1</i>
    <i name="SIGMA">      0.05000000</i>
    <i name="KSPACING">      0.50000000</i>
    <i type="logical" name="KGAMMA"> T  </i>
   </separator>
   <separator name="electronic projectors" >
    <i type="logical" name="LREAL"> F  </i>
    <v name="ROPT">      0.00000000      0.00000000</v>
    <i type="int" name="LMAXPAW">  -100</i>
    <i type="int" name="LMAXMIX">     2</i>
    <i type="logical" name="NLSPLINE"> F  </i>
   </separator>
   <separator name="electronic startup" >
    <i type="int" name="ISTART">     1</i>
    <i type="int" name="ICHARG">    11</i>
    <i type="int" name="INIWAV">     1</i>
   </separator>
   <separator name="electronic spin" >
    <i type="int" name="ISPIN">     1</i>
    <i type="logical" name="LNONCOLLINEAR"> F  </i>
    <v name="MAGMOM">      1.00000000      1.00000000      1.00000000      1.00000000</v>
    <i name="NUPDOWN">     -1.00000000</i>
    <i type="logical" name="LSORBIT"> F  </i>
    <v name="SAXIS">      0.00000000      0.00000000      1.00000000</v>
    <i type="logical" name="LSPIRAL"> F  </i>
    <v name="QSPIRAL">      0.00000000      0.00000000      0.00000000</v>
    <i type="logical" name="LZEROZ"> F  </i>
   </separator>
   <separator name="electronic exchange-correlation" >
    <i type="logical" name="LASPH"> F  </i>
    <i type="logical" name="LMETAGGA"> F  </i>
   </separator>
   <separator name="electronic convergence" >
    <i type="int" name="NELM">   100</i>
    <i type="int" name="NELMDL">     0</i>
    <i type="int" name="NELMIN">     5</i>
    <i name="ENINI">    300.00000000</i>
    <separator name="electronic convergence detail" >
     <i type="logical" name="LDIAG"> T  </i>
     <i type="logical" name="LSUBROT"> F  </i>
     <i name="WEIMIN">      0.00000000</i>
     <i name="EBREAK">      0.00000000</i>
     <i name="DEPER">      0.30000000</i>
     <i type="int" name="NRMM">     4</i>
     <i name="TIME">      0.40000000</i>
    </separator>
   </separator>
   <separator name="electronic mixer" >
    <i name="AMIX">      0.40000000</i>
    <i name="BMIX">      1.00000000</i>
    <i name="AMIN">      0.10000000</i>
    <i name="AMIX_MAG">      1.60000000</i>
    <i name="BMIX_MAG">      1.00000000</i>
    <separator name="electronic mixer details" >
     <i type="int" name="IMIX">     4</i>
     <i type="logical" name="MIXFIRST"> F  </i>
     <i type="int" name="MAXMIX">   -45</i>
     <i name="WC">    100.00000000</i>
     <i type="int" name="INIMIX">     1</i>
     <i type="int" name="MIXPRE">     1</i>
     <i type="int" name="MREMOVE">     5</i>
    </separator>
   </separator>
   <separator name="electronic dipolcorrection" >
    <i type="logical" name="LDIPOL"> F  </i>
    <i type="logical" name="LMONO"> F  </i>
    <i type="int" name="IDIPOL">     0</i>
    <i name="EPSILON">      1.00000000</i>
    <v name="DIPOL">   -100.00000000   -100.00000000   -100.00000000</v>
    <i name="EFIELD">      0.00000000</i>
   </separator>
  </separator>
  <separator name="grids" >
   <i type="int" name="NGX">    24</i>
   <i type="int" name="NGY">    24</i>
   <i type="int" name="NGZ">    36</i>
   <i type="int" name="NGXF">    48</i>
   <i type="int" name="NGYF">    48</i>
   <i type="int" name="NGZF">    72</i>
   <i type="logical" name="ADDGRID"> F  </i>
  </separator>
  <separator name="ionic" >
   <i type="int" name="NSW">     0</i>
   <i type="int" name="IBRION">    -1</i>
   <i type="int" name="ISIF">     2</i>
   <i name="PSTRESS">      0.00000000</i>
   <i name="EDIFFG">      0.00000010</i>
   <i type="int" name="NFREE">     0</i>
   <i name="POTIM">      0.50000000</i>
   <i name="SMASS">     -3.00000000</i>
   <i name="SCALEE">      1.00000000</i>
  </separator>
  <separator name="ionic md" >
   <i name="TEBEG">      0.00010000</i>
   <i name="TEEND">      0.00010000</i>
   <i type="int" name="NBLOCK">     1</i>
   <i type="int" name="KBLOCK">     1</i>
   <i type="int" name="NPACO">   256</i>
   <i name="APACO">     16.00000000</i>
  </separator>
  <separator name="symmetry" >
   <i type="int" name="ISYM">    -1</i>
   <i name="SYMPREC">      0.00001000</i>
  </separator>
  <separator name="dos" >
   <i type="logical" name="LORBIT"> T  </i>
   <v name="RWIGS">     -1.00000000     -1.00000000</v>
   <i type="int" name="NEDOS">   301</i>
   <i name="EMIN">     10.00000000</i>
   <i name="EMAX">    -10.00000000</i>
   <i name="EFERMI">      0.00000000</i>
  </separator>
  <separator name="writing" >
   <i type="int" name="NWRITE">     3</i>
   <i type="logical" name="LWAVE"> T  </i>
   <i type="logical" name="LCHARG"> T  </i>
   <i type="logical" name="LPARD"> F  </i>
   <i type="logical" name="LVTOT"> F  </i>
   <i type="logical" name="LVHAR"> F  </i>
   <i type="logical" name="LELF"> F  </i>
   <i type="logical" name="LOPTICS"> F  </i>
   <v name="STM">      0.00000000      0.00000000      0.00000000      0.00000000      0.00000000      0.00000000      0.00000000</v>
  </separator>
  <separator name="performance" >
   <i type="int" name="NPAR">     1</i>
   <i type="int" name="NSIM">     1</i>
   <i type="int" name="NBLK">    -1</i>
   <i type="logical" name="LPLANE"> T  </i>
   <i type="logical" name="LSCALAPACK"> T  </i>
   <i type="logical" name="LSCAAWARE"> F  </i>
   <i type="logical" name="LSCALU"> F  </i>
   <i type="logical" name="LASYNC"> F  </i>
   <i type="logical" name="LORBITALREAL"> F  </i>
  </separator>
  <separator name="miscellaneous" >
   <i type="int" name="IDIOT">     3</i>
   <i type="logical" name="LMUSIC"> F  </i>
   <v name="POMASS">     55.84700000     78.96000000</v>
   <v name="DARWINR">      0.00000000      0.00000000</v>
   <v name="DARWINV">      1.00000000      1.00000000</v>
   <i type="logical" name="LCORR"> T  </i>
  </separator>
  <i type="logical" name="GGA_COMPAT"> T  </i>
  <i type="logical" name="LBERRY"> F  </i>
  <i type="int" name="ICORELEVEL">     0</i>
  <i type="logical" name="LDAU"> F  </i>
  <i type="int" name="I_CONSTRAINED_M">     0</i>
  <separator name="electronic exchange-correlation" >
   <i type="string" name="GGA">--</i>
   <i type="int" name="VOSKOWN">     0</i>
   <i type="logical" name="LHFCALC"> F  </i>
   <i type="string" name="PRECFOCK"></i>
   <i type="logical" name="LSYMGRAD"> F  </i>
   <i type="logical" name="LHFONE"> F  </i>
   <i type="logical" name="LRHFCALC"> F  </i>
   <i type="logical" name="LTHOMAS"> F  </i>
   <i type="logical" name="LMODELHF"> F  </i>
   <i name="ENCUT4O">     -1.00000000</i>
   <i type="int" name="EXXOEP">     0</i>
   <i type="int" name="FOURORBIT">     0</i>
   <i name="AEXX">      0.00000000</i>
   <i name="HFALPHA">      0.00000000</i>
   <i name="MCALPHA">      0.00000000</i>
   <i name="ALDAX">      1.00000000</i>
   <i name="AGGAX">      1.00000000</i>
   <i name="ALDAC">      1.00000000</i>
   <i name="AGGAC">      1.00000000</i>
   <i type="int" name="NKREDX">     1</i>
   <i type="int" name="NKREDY">     1</i>
   <i type="int" name="NKREDZ">     1</i>
   <i type="logical" name="SHIFTRED"> F  </i>
   <i type="logical" name="ODDONLY"> F  </i>
   <i type="logical" name="EVENONLY"> F  </i>
   <i type="int" name="LMAXFOCK">     0</i>
   <i type="int" name="NMAXFOCKAE">     0</i>
   <i type="logical" name="LFOCKAEDFT"> F  </i>
   <i name="HFSCREEN">      0.00000000</i>
   <i name="HFSCREENC">      0.00000000</i>
   <i type="int" name="NBANDSGWLOW">     0</i>
  </separator>
  <separator name="vdW DFT" >
   <i type="logical" name="LUSE_VDW"> F  </i>
   <i name="Zab_VDW">     -0.84910000</i>
   <i name="PARAM1">      0.12340000</i>
   <i name="PARAM2">      1.00000000</i>
   <i name="PARAM3">      0.00000000</i>
  </separator>
  <separator name="model GW" >
   <i type="int" name="MODEL_GW">     0</i>
   <i name="MODEL_EPS0">     11.74750775</i>
   <i name="MODEL_ALPHA">      1.00000000</i>
  </separator>
  <separator name="linear response parameters" >
   <i type="logical" name="LEPSILON"> F  </i>
   <i type="logical" name="LRPA"> F  </i>
   <i type="logical" name="LNABLA"> F  </i>
   <i type="logical" name="LVEL"> F  </i>
   <i type="int" name="KINTER">     0</i>
   <i name="CSHIFT">      0.10000000</i>
   <i name="OMEGAMAX">     -1.00000000</i>
   <i name="DEG_THRESHOLD">      0.00200000</i>
  </separator>
  <separator name="orbital magnetization" >
   <i type="logical" name="NUCIND"> F  </i>
   <v name="MAGPOS">      0.00000000      0.00000000      0.00000000</v>
   <i type="logical" name="LNICSALL"> T  </i>
   <i type="logical" name="ORBITALMAG"> F  </i>
   <i type="logical" name="LMAGBLOCH"> F  </i>
   <i type="logical" name="LCHIMAG"> F  </i>
   <i type="logical" name="LGAUGE"> T  </i>
   <i type="int" name="MAGATOM">     0</i>
   <v name="MAGDIPOL">      0.00000000      0.00000000      0.00000000</v>
   <v name="AVECCONST">      0.00000000      0.00000000      0.00000000</v>
  </separator>
  <separator name="response functions" >
   <i type="logical" name="LADDER"> F  </i>
   <i type="logical" name="LFXC"> F  </i>
   <i type="logical" name="LHARTREE"> T  </i>
   <i type="int" name="IBSE">     0</i>
   <v type="int" name="KPOINT">    -1     0     0     0</v>
   <i type="logical" name="LTCTE"> F  </i>
   <i type="logical" name="LTETE"> F  </i>
   <i type="logical" name="LTRIPLET"> F  </i>
   <i type="logical" name="LFXCEPS"> F  </i>
   <i type="logical" name="LFXHEG"> F  </i>
   <i type="int" name="NATURALO">     0</i>
   <i type="logical" name="L2ORDER"> F  </i>
   <i type="logical" name="LUSEW"> F  </i>
   <i name="ENCUTGW">     -2.00000000</i>
   <i name="ENCUTGWSOFT">     -2.00000000</i>
   <i name="ENCUTLF">     -1.00000000</i>
   <i type="int" name="LMAXMP2">    -1</i>
   <i name="SCISSOR">      0.00000000</i>
   <i type="int" name="NOMEGA">     0</i>
   <i type="int" name="NOMEGAR">     0</i>
   <i type="int" name="NBANDSGW">    -1</i>
   <i type="int" name="NBANDSO">    -1</i>
   <i type="int" name="NBANDSV">    -1</i>
   <i type="int" name="NELM">   100</i>
   <i type="int" name="NELMHF">     1</i>
   <i type="int" name="DIM">     3</i>
   <i type="int" name="ANTIRES">     0</i>
   <i name="OMEGAMAX">    -30.00000000</i>
   <i name="OMEGAMIN">    -30.00000000</i>
   <i name="OMEGATL">   -200.00000000</i>
   <i type="int" name="OMEGAGRID">     0</i>
   <i name="CSHIFT">     -0.10000000</i>
   <i type="logical" name="SELFENERGY"> F  </i>
   <i type="logical" name="LSPECTRAL"> F  </i>
   <i type="logical" name="LSPECTRALGW"> F  </i>
   <i type="logical" name="LSINGLES"> F  </i>
   <i type="logical" name="LFERMIGW"> F  </i>
   <i type="logical" name="ODDONLYGW"> F  </i>
   <i type="logical" name="EVENONLYGW"> F  </i>
   <i type="int" name="NKREDLFX">     1</i>
   <i type="int" name="NKREDLFY">     1</i>
   <i type="int" name="NKREDLFZ">     1</i>
   <i type="int" name="MAXMEM">  1800</i>
   <i type="int" name="TELESCOPE">     0</i>
   <i type="int" name="TAUPAR">     1</i>
   <i type="int" name="OMEGAPAR">    -1</i>
   <i name="LAMBDA">      1.00000000</i>
  </separator>
  <separator name="External order field" >
   <i name="OFIELD_KAPPA">      0.00000000</i>
   <v name="OFIELD_K">      0.00000000      0.00000000      0.00000000</v>
   <i name="OFIELD_Q6_NEAR">      0.00000000</i>
   <i name="OFIELD_Q6_FAR">      0.00000000</i>
   <i name="OFIELD_A">      0.00000000</i>
  </separator>
 </parameters>
 <atominfo>
  <atoms>       4 </atoms>
  <types>       2 </types>
  <array name="atoms" >
   <dimension dim="1">ion</dimension>
   <field type="string">element</field>
   <field type="int">atomtype</field>
   <set>
    <rc><c>Fe</c><c>   1</c></rc>
    <rc><c>Fe</c><c>   1</c></rc>
    <rc><c>Se</c><c>   2</c></rc>
    <rc><c>Se</c><c>   2</c></rc>
   </set>
  </array>
  <array name="atomtypes" >
   <dimension dim="1">type</dimension>
   <field type="int">atomspertype</field>
   <field type="string">element</field>
   <field>mass</field>
   <field>valence</field>
   <field type="string">pseudopotential</field>
   <set>
    <rc><c>   2</c><c>Fe</c><c>     55.84700000</c><c>     14.00000000</c><c>  PAW_PBE Fe_pv 02Aug2007               </c></rc>
    <rc><c>   2</c><c>Se</c><c>     78.96000000</c><c>      6.00000000</c><c>  PAW_PBE Se 06Sep2000                  </c></rc>
   </set>
  </array>
 </atominfo>
 <structure name="initialpos" >
  <crystal>
   <varray name="basis" >
    <v>       3.65142400       0.00000000       0.00000000 </v>
    <v>       0.00000000       3.65142400       0.00000000 </v>
    <v>       0.00000000       0.00000000       5.87394600 </v>
   </varray>
   <i name="volume">     78.31671834 </i>
   <varray name="rec_basis" >
    <v>       0.27386576       0.00000000       0.00000000 </v>
    <v>       0.00000000       0.27386576       0.00000000 </v>
    <v>       0.00000000       0.00000000       0.17024331 </v>
   </varray>
  </crystal>
  <varray name="positions" >
   <v>       0.00000000       0.00000000       0.00000000 </v>
   <v>       0.50000000       0.50000000       0.00000000 </v>
   <v>       0.00000000       0.50000000       0.24120400 </v>
   <v>       0.50000000       0.00000000       0.75879700 </v>
  </varray>
 </structure>
 <calculation>
  <scstep>
   <time name="dav">    1.62    1.62</time>
   <time name="total">    1.75    1.75</time>
   <energy>
    <i name="alphaZ">    150.82517259 </i>
    <i name="ewald">  -2417.27147393 </i>
    <i name="hartreedc">  -2615.93882813 </i>
    <i name="XCdc">    140.15897770 </i>
    <i name="pawpsdc">   5153.03625999 </i>
    <i name="pawaedc">  -5306.93080730 </i>
    <i name="eentropy">      0.00527901 </i>
    <i name="bandstr">   -557.40039307 </i>
    <i name="atom">   5428.96091767 </i>
    <i name="e_fr_energy">    -24.55489547 </i>
    <i name="e_wo_entrp">    -24.56017448 </i>
    <i name="e_0_energy">    -24.55665514 </i>
   </energy>
  </scstep>
  <scstep>
   <time name="diag">    0.64    0.64</time>
   <time name="diis">    0.77    0.78</time>
   <time name="orth">    0.05    0.05</time>
   <time name="total">    1.47    1.47</time>
   <energy>
    <i name="e_fr_energy">    -24.55482989 </i>
    <i name="e_wo_entrp">    -24.56010222 </i>
    <i name="e_0_energy">    -24.55658734 </i>
   </energy>
  </scstep>
  <scstep>
   <time name="diag">    0.64    0.64</time>
   <time name="diis">    0.76    0.76</time>
   <time name="orth">    0.05    0.05</time>
   <time name="total">    1.46    1.46</time>
   <energy>
    <i name="e_fr_energy">    -24.55485123 </i>
    <i name="e_wo_entrp">    -24.56013254 </i>
    <i name="e_0_energy">    -24.55661167 </i>
   </energy>
  </scstep>
  <scstep>
   <time name="diag">    0.64    0.64</time>
   <time name="diis">    0.76    0.76</time>
   <time name="orth">    0.05    0.05</time>
   <time name="total">    1.46    1.46</time>
   <energy>
    <i name="e_fr_energy">    -24.55485114 </i>
    <i name="e_wo_entrp">    -24.56013243 </i>
    <i name="e_0_energy">    -24.55661157 </i>
   </energy>
  </scstep>
  <scstep>
   <time name="diag">    0.64    0.64</time>
   <time name="diis">    2.57    2.57</time>
   <time name="orth">    0.05    0.05</time>
   <time name="total">    3.27    3.27</time>
   <energy>
    <i name="e_fr_energy">    -24.55485116 </i>
    <i name="e_wo_entrp">    -24.56013245 </i>
    <i name="e_0_energy">    -24.55661159 </i>
   </energy>
  </scstep>
  <scstep>
   <time name="diag">    0.65    0.65</time>
   <time name="diis">    1.94    1.94</time>
   <time name="orth">    0.05    0.05</time>
   <time name="total">    2.65    2.65</time>
   <energy>
    <i name="alphaZ">    150.82517259 </i>
    <i name="ewald">  -2417.27147393 </i>
    <i name="hartreedc">  -2615.93882813 </i>
    <i name="XCdc">    140.15897770 </i>
    <i name="pawpsdc">   5153.03625999 </i>
    <i name="pawaedc">  -5306.93080730 </i>
    <i name="eentropy">      0.00528129 </i>
    <i name="bandstr">   -557.40035104 </i>
    <i name="atom">   5428.96091767 </i>
    <i name="e_fr_energy">    -24.55485116 </i>
    <i name="e_wo_entrp">    -24.56013245 </i>
    <i name="e_0_energy">    -24.55661159 </i>
   </energy>
  </scstep>
  <structure>
   <crystal>
    <varray name="basis" >
     <v>       3.65142400       0.00000000       0.00000000 </v>
     <v>       0.00000000       3.65142400       0.00000000 </v>
     <v>       0.00000000       0.00000000       5.87394600 </v>
    </varray>
    <i name="volume">     78.31671834 </i>
    <varray name="rec_basis" >
     <v>       0.27386576       0.00000000       0.00000000 </v>
     <v>       0.00000000       0.27386576       0.00000000 </v>
     <v>       0.00000000       0.00000000       0.17024331 </v>
    </varray>
   </crystal>
   <varray name="positions" >
    <v>       0.00000000       0.00000000       0.00000000 </v>
    <v>       0.50000000       0.50000000       0.00000000 </v>
    <v>       0.00000000       0.50000000       0.24120400 </v>
    <v>       0.50000000       0.00000000       0.75879700 </v>
   </varray>
  </structure>
  <varray name="forces" >
   <v>      -0.00000009      -0.00000010       0.00003663 </v>
   <v>       0.00000005       0.00000003       0.00003623 </v>
   <v>      -0.00000009       0.00000035      -0.36628752 </v>
   <v>       0.00000013      -0.00000028       0.36621465 </v>
  </varray>
  <varray name="stress" >
   <v>      57.43573615      -0.00001525       0.00000372 </v>
   <v>      -0.00001398      57.43573736       0.00000459 </v>
   <v>       0.00000101       0.00000704      46.46311241 </v>
  </varray>
  <energy>
   <i name="e_fr_energy">    -24.55485116 </i>
   <i name="e_wo_entrp">    -24.55661159 </i>
   <i name="e_0_energy">      0.00528129 </i>
  </energy>
  <time name="totalsc">   14.34   14.35</time>
  <eigenvalues>
   <array>
    <dimension dim="1">band</dimension>
    <dimension dim="2">kpoint</dimension>
    <dimension dim="3">spin</dimension>
    <field>eigene</field>
    <field>occ</field>
    <set>
     <set comment="spin 1">
      <set comment="kpoint 1">
       <r>  -48.0307    1.0000 </r>
       <r>  -48.0002    1.0000 </r>
       <r>  -47.8880    1.0000 </r>
       <r>  -47.8572    1.0000 </r>
       <r>  -47.8013    1.0000 </r>
       <r>  -47.7654    1.0000 </r>
       <r>   -9.6152    1.0000 </r>
       <r>   -8.8151    1.0000 </r>
       <r>   -0.6552    1.0000 </r>
       <r>    0.1723    1.0000 </r>
       <r>    0.6018    1.0000 </r>
       <r>    0.8389    1.0000 </r>
       <r>    1.3299    1.0000 </r>
       <r>    1.7552    1.0000 </r>
       <r>    2.3579    1.0000 </r>
       <r>    4.1339    1.0000 </r>
       <r>    4.2389    1.0000 </r>
       <r>    4.2960    1.0000 </r>
       <r>    4.8829    1.0233 </r>
       <r>    4.9093    1.0307 </r>
       <r>    5.7924   -0.0000 </r>
       <r>    5.9806   -0.0000 </r>
       <r>    6.6096    0.0000 </r>
       <r>    6.9959    0.0000 </r>
      </set>
      <set comment="kpoint 2">
       <r>  -48.0120    1.0000 </r>
       <r>  -47.9533    1.0000 </r>
       <r>  -47.9385    1.0000 </r>
       <r>  -47.8790    1.0000 </r>
       <r>  -47.7905    1.0000 </r>
       <r>  -47.7754    1.0000 </r>
       <r>   -9.0901    1.0000 </r>
       <r>   -8.7342    1.0000 </r>
       <r>   -0.6411    1.0000 </r>
       <r>   -0.4607    1.0000 </r>
       <r>    0.5699    1.0000 </r>
       <r>    0.9489    1.0000 </r>
       <r>    1.1267    1.0000 </r>
       <r>    1.4999    1.0000 </r>
       <r>    2.9897    1.0000 </r>
       <r>    3.5026    1.0000 </r>
       <r>    3.8812    1.0000 </r>
       <r>    3.9994    1.0000 </r>
       <r>    4.2948    1.0000 </r>
       <r>    4.4048    1.0000 </r>
       <r>    5.6994   -0.0000 </r>
       <r>    5.8424   -0.0000 </r>
       <r>    6.4145    0.0000 </r>
       <r>    6.6436    0.0000 </r>
      </set>
      <set comment="kpoint 3">
       <r>  -48.0120    1.0000 </r>
       <r>  -47.9533    1.0000 </r>
       <r>  -47.9385    1.0000 </r>
       <r>  -47.8790    1.0000 </r>
       <r>  -47.7905    1.0000 </r>
       <r>  -47.7754    1.0000 </r>
       <r>   -9.0901    1.0000 </r>
       <r>   -8.7342    1.0000 </r>
       <r>   -0.6411    1.0000 </r>
       <r>   -0.4607    1.0000 </r>
       <r>    0.5699    1.0000 </r>
       <r>    0.9489    1.0000 </r>
       <r>    1.1267    1.0000 </r>
       <r>    1.4999    1.0000 </r>
       <r>    2.9897    1.0000 </r>
       <r>    3.5026    1.0000 </r>
       <r>    3.8812    1.0000 </r>
       <r>    3.9994    1.0000 </r>
       <r>    4.2948    1.0000 </r>
       <r>    4.4048    1.0000 </r>
       <r>    5.6994   -0.0000 </r>
       <r>    5.8424   -0.0000 </r>
       <r>    6.4145    0.0000 </r>
       <r>    6.6436    0.0000 </r>
      </set>
      <set comment="kpoint 4">
       <r>  -48.0307    1.0000 </r>
       <r>  -48.0002    1.0000 </r>
       <r>  -47.8880    1.0000 </r>
       <r>  -47.8572    1.0000 </r>
       <r>  -47.8013    1.0000 </r>
       <r>  -47.7654    1.0000 </r>
       <r>   -9.6152    1.0000 </r>
       <r>   -8.8151    1.0000 </r>
       <r>   -0.6552    1.0000 </r>
       <r>    0.1723    1.0000 </r>
       <r>    0.6018    1.0000 </r>
       <r>    0.8389    1.0000 </r>
       <r>    1.3299    1.0000 </r>
       <r>    1.7552    1.0000 </r>
       <r>    2.3579    1.0000 </r>
       <r>    4.1339    1.0000 </r>
       <r>    4.2389    1.0000 </r>
       <r>    4.2960    1.0000 </r>
       <r>    4.8829    1.0233 </r>
       <r>    4.9093    1.0307 </r>
       <r>    5.7924   -0.0000 </r>
       <r>    5.9806   -0.0000 </r>
       <r>    6.6096    0.0000 </r>
       <r>    6.9959    0.0000 </r>
      </set>
      <set comment="kpoint 5">
       <r>  -48.0120    1.0000 </r>
       <r>  -47.9533    1.0000 </r>
       <r>  -47.9385    1.0000 </r>
       <r>  -47.8790    1.0000 </r>
       <r>  -47.7905    1.0000 </r>
       <r>  -47.7754    1.0000 </r>
       <r>   -9.0901    1.0000 </r>
       <r>   -8.7342    1.0000 </r>
       <r>   -0.6411    1.0000 </r>
       <r>   -0.4607    1.0000 </r>
       <r>    0.5699    1.0000 </r>
       <r>    0.9489    1.0000 </r>
       <r>    1.1267    1.0000 </r>
       <r>    1.4999    1.0000 </r>
       <r>    2.9897    1.0000 </r>
       <r>    3.5026    1.0000 </r>
       <r>    3.8812    1.0000 </r>
       <r>    3.9994    1.0000 </r>
       <r>    4.2948    1.0000 </r>
       <r>    4.4048    1.0000 </r>
       <r>    5.6994   -0.0000 </r>
       <r>    5.8424   -0.0000 </r>
       <r>    6.4145    0.0000 </r>
       <r>    6.6436    0.0000 </r>
      </set>
      <set comment="kpoint 6">
       <r>  -48.0479    1.0000 </r>
       <r>  -48.0238    1.0000 </r>
       <r>  -47.8703    1.0000 </r>
       <r>  -47.8456    1.0000 </r>
       <r>  -47.7858    1.0000 </r>
       <r>  -47.7794    1.0000 </r>
       <r>   -8.6976    1.0000 </r>
       <r>   -8.5405    1.0000 </r>
       <r>   -0.8293    1.0000 </r>
       <r>   -0.6216    1.0000 </r>
       <r>    0.6514    1.0000 </r>
       <r>    0.9960    1.0000 </r>
       <r>    1.3407    1.0000 </r>
       <r>    1.5688    1.0000 </r>
       <r>    2.9650    1.0000 </r>
       <r>    3.1091    1.0000 </r>
       <r>    3.2424    1.0000 </r>
       <r>    3.3935    1.0000 </r>
       <r>    4.3320    1.0000 </r>
       <r>    4.6741    1.0000 </r>
       <r>    5.0101   -0.0190 </r>
       <r>    5.0211   -0.0350 </r>
       <r>    6.1220   -0.0000 </r>
       <r>    6.2246   -0.0000 </r>
      </set>
      <set comment="kpoint 7">
       <r>  -48.0479    1.0000 </r>
       <r>  -48.0238    1.0000 </r>
       <r>  -47.8703    1.0000 </r>
       <r>  -47.8456    1.0000 </r>
       <r>  -47.7858    1.0000 </r>
       <r>  -47.7794    1.0000 </r>
       <r>   -8.6976    1.0000 </r>
       <r>   -8.5405    1.0000 </r>
       <r>   -0.8293    1.0000 </r>
       <r>   -0.6216    1.0000 </r>
       <r>    0.6514    1.0000 </r>
       <r>    0.9960    1.0000 </r>
       <r>    1.3407    1.0000 </r>
       <r>    1.5688    1.0000 </r>
       <r>    2.9650    1.0000 </r>
       <r>    3.1091    1.0000 </r>
       <r>    3.2424    1.0000 </r>
       <r>    3.3935    1.0000 </r>
       <r>    4.3320    1.0000 </r>
       <r>    4.6741    1.0000 </r>
       <r>    5.0101   -0.0190 </r>
       <r>    5.0211   -0.0350 </r>
       <r>    6.1220   -0.0000 </r>
       <r>    6.2246   -0.0000 </r>
      </set>
      <set comment="kpoint 8">
       <r>  -48.0120    1.0000 </r>
       <r>  -47.9533    1.0000 </r>
       <r>  -47.9385    1.0000 </r>
       <r>  -47.8790    1.0000 </r>
       <r>  -47.7905    1.0000 </r>
       <r>  -47.7754    1.0000 </r>
       <r>   -9.0901    1.0000 </r>
       <r>   -8.7342    1.0000 </r>
       <r>   -0.6411    1.0000 </r>
       <r>   -0.4607    1.0000 </r>
       <r>    0.5699    1.0000 </r>
       <r>    0.9489    1.0000 </r>
       <r>    1.1267    1.0000 </r>
       <r>    1.4999    1.0000 </r>
       <r>    2.9897    1.0000 </r>
       <r>    3.5026    1.0000 </r>
       <r>    3.8812    1.0000 </r>
       <r>    3.9994    1.0000 </r>
       <r>    4.2948    1.0000 </r>
       <r>    4.4048    1.0000 </r>
       <r>    5.6994   -0.0000 </r>
       <r>    5.8424   -0.0000 </r>
       <r>    6.4145    0.0000 </r>
       <r>    6.6436    0.0000 </r>
      </set>
      <set comment="kpoint 9">
       <r>  -48.0120    1.0000 </r>
       <r>  -47.9533    1.0000 </r>
       <r>  -47.9385    1.0000 </r>
       <r>  -47.8790    1.0000 </r>
       <r>  -47.7905    1.0000 </r>
       <r>  -47.7754    1.0000 </r>
       <r>   -9.0901    1.0000 </r>
       <r>   -8.7342    1.0000 </r>
       <r>   -0.6411    1.0000 </r>
       <r>   -0.4607    1.0000 </r>
       <r>    0.5699    1.0000 </r>
       <r>    0.9489    1.0000 </r>
       <r>    1.1267    1.0000 </r>
       <r>    1.4999    1.0000 </r>
       <r>    2.9897    1.0000 </r>
       <r>    3.5026    1.0000 </r>
       <r>    3.8812    1.0000 </r>
       <r>    3.9994    1.0000 </r>
       <r>    4.2948    1.0000 </r>
       <r>    4.4048    1.0000 </r>
       <r>    5.6994   -0.0000 </r>
       <r>    5.8424   -0.0000 </r>
       <r>    6.4145    0.0000 </r>
       <r>    6.6436    0.0000 </r>
      </set>
      <set comment="kpoint 10">
       <r>  -48.0479    1.0000 </r>
       <r>  -48.0238    1.0000 </r>
       <r>  -47.8703    1.0000 </r>
       <r>  -47.8456    1.0000 </r>
       <r>  -47.7858    1.0000 </r>
       <r>  -47.7794    1.0000 </r>
       <r>   -8.6976    1.0000 </r>
       <r>   -8.5405    1.0000 </r>
       <r>   -0.8293    1.0000 </r>
       <r>   -0.6216    1.0000 </r>
       <r>    0.6514    1.0000 </r>
       <r>    0.9960    1.0000 </r>
       <r>    1.3407    1.0000 </r>
       <r>    1.5688    1.0000 </r>
       <r>    2.9650    1.0000 </r>
       <r>    3.1091    1.0000 </r>
       <r>    3.2424    1.0000 </r>
       <r>    3.3935    1.0000 </r>
       <r>    4.3320    1.0000 </r>
       <r>    4.6741    1.0000 </r>
       <r>    5.0101   -0.0190 </r>
       <r>    5.0211   -0.0350 </r>
       <r>    6.1220   -0.0000 </r>
       <r>    6.2246   -0.0000 </r>
      </set>
      <set comment="kpoint 11">
       <r>  -48.0479    1.0000 </r>
       <r>  -48.0238    1.0000 </r>
       <r>  -47.8703    1.0000 </r>
       <r>  -47.8456    1.0000 </r>
       <r>  -47.7858    1.0000 </r>
       <r>  -47.7794    1.0000 </r>
       <r>   -8.6976    1.0000 </r>
       <r>   -8.5405    1.0000 </r>
       <r>   -0.8293    1.0000 </r>
       <r>   -0.6216    1.0000 </r>
       <r>    0.6514    1.0000 </r>
       <r>    0.9960    1.0000 </r>
       <r>    1.3407    1.0000 </r>
       <r>    1.5688    1.0000 </r>
       <r>    2.9650    1.0000 </r>
       <r>    3.1091    1.0000 </r>
       <r>    3.2424    1.0000 </r>
       <r>    3.3935    1.0000 </r>
       <r>    4.3320    1.0000 </r>
       <r>    4.6741    1.0000 </r>
       <r>    5.0101   -0.0190 </r>
       <r>    5.0211   -0.0350 </r>
       <r>    6.1220   -0.0000 </r>
       <r>    6.2246   -0.0000 </r>
      </set>
      <set comment="kpoint 12">
       <r>  -48.0120    1.0000 </r>
       <r>  -47.9533    1.0000 </r>
       <r>  -47.9385    1.0000 </r>
       <r>  -47.8790    1.0000 </r>
       <r>  -47.7905    1.0000 </r>
       <r>  -47.7754    1.0000 </r>
       <r>   -9.0901    1.0000 </r>
       <r>   -8.7342    1.0000 </r>
       <r>   -0.6411    1.0000 </r>
       <r>   -0.4607    1.0000 </r>
       <r>    0.5699    1.0000 </r>
       <r>    0.9489    1.0000 </r>
       <r>    1.1267    1.0000 </r>
       <r>    1.4999    1.0000 </r>
       <r>    2.9897    1.0000 </r>
       <r>    3.5026    1.0000 </r>
       <r>    3.8812    1.0000 </r>
       <r>    3.9994    1.0000 </r>
       <r>    4.2948    1.0000 </r>
       <r>    4.4048    1.0000 </r>
       <r>    5.6994   -0.0000 </r>
       <r>    5.8424   -0.0000 </r>
       <r>    6.4145    0.0000 </r>
       <r>    6.6436    0.0000 </r>
      </set>
      <set comment="kpoint 13">
       <r>  -48.0307    1.0000 </r>
       <r>  -48.0002    1.0000 </r>
       <r>  -47.8880    1.0000 </r>
       <r>  -47.8572    1.0000 </r>
       <r>  -47.8013    1.0000 </r>
       <r>  -47.7654    1.0000 </r>
       <r>   -9.6152    1.0000 </r>
       <r>   -8.8151    1.0000 </r>
       <r>   -0.6552    1.0000 </r>
       <r>    0.1723    1.0000 </r>
       <r>    0.6018    1.0000 </r>
       <r>    0.8389    1.0000 </r>
       <r>    1.3299    1.0000 </r>
       <r>    1.7552    1.0000 </r>
       <r>    2.3579    1.0000 </r>
       <r>    4.1339    1.0000 </r>
       <r>    4.2389    1.0000 </r>
       <r>    4.2960    1.0000 </r>
       <r>    4.8829    1.0233 </r>
       <r>    4.9093    1.0307 </r>
       <r>    5.7924   -0.0000 </r>
       <r>    5.9806   -0.0000 </r>
       <r>    6.6096    0.0000 </r>
       <r>    6.9959    0.0000 </r>
      </set>
      <set comment="kpoint 14">
       <r>  -48.0120    1.0000 </r>
       <r>  -47.9533    1.0000 </r>
       <r>  -47.9385    1.0000 </r>
       <r>  -47.8790    1.0000 </r>
       <r>  -47.7905    1.0000 </r>
       <r>  -47.7754    1.0000 </r>
       <r>   -9.0901    1.0000 </r>
       <r>   -8.7342    1.0000 </r>
       <r>   -0.6411    1.0000 </r>
       <r>   -0.4607    1.0000 </r>
       <r>    0.5699    1.0000 </r>
       <r>    0.9489    1.0000 </r>
       <r>    1.1267    1.0000 </r>
       <r>    1.4999    1.0000 </r>
       <r>    2.9897    1.0000 </r>
       <r>    3.5026    1.0000 </r>
       <r>    3.8812    1.0000 </r>
       <r>    3.9994    1.0000 </r>
       <r>    4.2948    1.0000 </r>
       <r>    4.4048    1.0000 </r>
       <r>    5.6994   -0.0000 </r>
       <r>    5.8424   -0.0000 </r>
       <r>    6.4145    0.0000 </r>
       <r>    6.6436    0.0000 </r>
      </set>
      <set comment="kpoint 15">
       <r>  -48.0120    1.0000 </r>
       <r>  -47.9533    1.0000 </r>
       <r>  -47.9385    1.0000 </r>
       <r>  -47.8790    1.0000 </r>
       <r>  -47.7905    1.0000 </r>
       <r>  -47.7754    1.0000 </r>
       <r>   -9.0901    1.0000 </r>
       <r>   -8.7342    1.0000 </r>
       <r>   -0.6411    1.0000 </r>
       <r>   -0.4607    1.0000 </r>
       <r>    0.5699    1.0000 </r>
       <r>    0.9489    1.0000 </r>
       <r>    1.1267    1.0000 </r>
       <r>    1.4999    1.0000 </r>
       <r>    2.9897    1.0000 </r>
       <r>    3.5026    1.0000 </r>
       <r>    3.8812    1.0000 </r>
       <r>    3.9994    1.0000 </r>
       <r>    4.2948    1.0000 </r>
       <r>    4.4048    1.0000 </r>
       <r>    5.6994   -0.0000 </r>
       <r>    5.8424   -0.0000 </r>
       <r>    6.4145    0.0000 </r>
       <r>    6.6436    0.0000 </r>
      </set>
      <set comment="kpoint 16">
       <r>  -48.0307    1.0000 </r>
       <r>  -48.0002    1.0000 </r>
       <r>  -47.8880    1.0000 </r>
       <r>  -47.8572    1.0000 </r>
       <r>  -47.8013    1.0000 </r>
       <r>  -47.7654    1.0000 </r>
       <r>   -9.6152    1.0000 </r>
       <r>   -8.8151    1.0000 </r>
       <r>   -0.6552    1.0000 </r>
       <r>    0.1723    1.0000 </r>
       <r>    0.6018    1.0000 </r>
       <r>    0.8389    1.0000 </r>
       <r>    1.3299    1.0000 </r>
       <r>    1.7552    1.0000 </r>
       <r>    2.3579    1.0000 </r>
       <r>    4.1339    1.0000 </r>
       <r>    4.2389    1.0000 </r>
       <r>    4.2960    1.0000 </r>
       <r>    4.8829    1.0233 </r>
       <r>    4.9093    1.0307 </r>
       <r>    5.7924   -0.0000 </r>
       <r>    5.9806   -0.0000 </r>
       <r>    6.6096    0.0000 </r>
       <r>    6.9959    0.0000 </r>
      </set>
      <set comment="kpoint 17">
       <r>  -48.0307    1.0000 </r>
       <r>  -48.0002    1.0000 </r>
       <r>  -47.8880    1.0000 </r>
       <r>  -47.8572    1.0000 </r>
       <r>  -47.8013    1.0000 </r>
       <r>  -47.7654    1.0000 </r>
       <r>   -9.6152    1.0000 </r>
       <r>   -8.8151    1.0000 </r>
       <r>   -0.6552    1.0000 </r>
       <r>    0.1723    1.0000 </r>
       <r>    0.6018    1.0000 </r>
       <r>    0.8389    1.0000 </r>
       <r>    1.3299    1.0000 </r>
       <r>    1.7552    1.0000 </r>
       <r>    2.3579    1.0000 </r>
       <r>    4.1339    1.0000 </r>
       <r>    4.2389    1.0000 </r>
       <r>    4.2960    1.0000 </r>
       <r>    4.8829    1.0233 </r>
       <r>    4.9093    1.0307 </r>
       <r>    5.7924   -0.0000 </r>
       <r>    5.9806   -0.0000 </r>
       <r>    6.6096    0.0000 </r>
       <r>    6.9959    0.0000 </r>
      </set>
      <set comment="kpoint 18">
       <r>  -48.0120    1.0000 </r>
       <r>  -47.9533    1.0000 </r>
       <r>  -47.9385    1.0000 </r>
       <r>  -47.8790    1.0000 </r>
       <r>  -47.7905    1.0000 </r>
       <r>  -47.7754    1.0000 </r>
       <r>   -9.0901    1.0000 </r>
       <r>   -8.7342    1.0000 </r>
       <r>   -0.6411    1.0000 </r>
       <r>   -0.4607    1.0000 </r>
       <r>    0.5699    1.0000 </r>
       <r>    0.9489    1.0000 </r>
       <r>    1.1267    1.0000 </r>
       <r>    1.4999    1.0000 </r>
       <r>    2.9897    1.0000 </r>
       <r>    3.5026    1.0000 </r>
       <r>    3.8812    1.0000 </r>
       <r>    3.9994    1.0000 </r>
       <r>    4.2948    1.0000 </r>
       <r>    4.4048    1.0000 </r>
       <r>    5.6994   -0.0000 </r>
       <r>    5.8424   -0.0000 </r>
       <r>    6.4145    0.0000 </r>
       <r>    6.6436    0.0000 </r>
      </set>
      <set comment="kpoint 19">
       <r>  -48.0120    1.0000 </r>
       <r>  -47.9533    1.0000 </r>
       <r>  -47.9385    1.0000 </r>
       <r>  -47.8790    1.0000 </r>
       <r>  -47.7905    1.0000 </r>
       <r>  -47.7754    1.0000 </r>
       <r>   -9.0901    1.0000 </r>
       <r>   -8.7342    1.0000 </r>
       <r>   -0.6411    1.0000 </r>
       <r>   -0.4607    1.0000 </r>
       <r>    0.5699    1.0000 </r>
       <r>    0.9489    1.0000 </r>
       <r>    1.1267    1.0000 </r>
       <r>    1.4999    1.0000 </r>
       <r>    2.9897    1.0000 </r>
       <r>    3.5026    1.0000 </r>
       <r>    3.8812    1.0000 </r>
       <r>    3.9994    1.0000 </r>
       <r>    4.2948    1.0000 </r>
       <r>    4.4048    1.0000 </r>
       <r>    5.6994   -0.0000 </r>
       <r>    5.8424   -0.0000 </r>
       <r>    6.4145    0.0000 </r>
       <r>    6.6436    0.0000 </r>
      </set>
      <set comment="kpoint 20">
       <r>  -48.0307    1.0000 </r>
       <r>  -48.0002    1.0000 </r>
       <r>  -47.8880    1.0000 </r>
       <r>  -47.8572    1.0000 </r>
       <r>  -47.8013    1.0000 </r>
       <r>  -47.7654    1.0000 </r>
       <r>   -9.6152    1.0000 </r>
       <r>   -8.8151    1.0000 </r>
       <r>   -0.6552    1.0000 </r>
       <r>    0.1723    1.0000 </r>
       <r>    0.6018    1.0000 </r>
       <r>    0.8389    1.0000 </r>
       <r>    1.3299    1.0000 </r>
       <r>    1.7552    1.0000 </r>
       <r>    2.3579    1.0000 </r>
       <r>    4.1339    1.0000 </r>
       <r>    4.2389    1.0000 </r>
       <r>    4.2960    1.0000 </r>
       <r>    4.8829    1.0233 </r>
       <r>    4.9093    1.0307 </r>
       <r>    5.7924   -0.0000 </r>
       <r>    5.9806   -0.0000 </r>
       <r>    6.6096    0.0000 </r>
       <r>    6.9959    0.0000 </r>
      </set>
      <set comment="kpoint 21">
       <r>  -48.0120    1.0000 </r>
       <r>  -47.9533    1.0000 </r>
       <r>  -47.9385    1.0000 </r>
       <r>  -47.8790    1.0000 </r>
       <r>  -47.7905    1.0000 </r>
       <r>  -47.7754    1.0000 </r>
       <r>   -9.0901    1.0000 </r>
       <r>   -8.7342    1.0000 </r>
       <r>   -0.6411    1.0000 </r>
       <r>   -0.4607    1.0000 </r>
       <r>    0.5699    1.0000 </r>
       <r>    0.9489    1.0000 </r>
       <r>    1.1267    1.0000 </r>
       <r>    1.4999    1.0000 </r>
       <r>    2.9897    1.0000 </r>
       <r>    3.5026    1.0000 </r>
       <r>    3.8812    1.0000 </r>
       <r>    3.9994    1.0000 </r>
       <r>    4.2948    1.0000 </r>
       <r>    4.4048    1.0000 </r>
       <r>    5.6994   -0.0000 </r>
       <r>    5.8424   -0.0000 </r>
       <r>    6.4145    0.0000 </r>
       <r>    6.6436    0.0000 </r>
      </set>
      <set comment="kpoint 22">
       <r>  -48.0479    1.0000 </r>
       <r>  -48.0238    1.0000 </r>
       <r>  -47.8703    1.0000 </r>
       <r>  -47.8456    1.0000 </r>
       <r>  -47.7858    1.0000 </r>
       <r>  -47.7794    1.0000 </r>
       <r>   -8.6976    1.0000 </r>
       <r>   -8.5405    1.0000 </r>
       <r>   -0.8293    1.0000 </r>
       <r>   -0.6216    1.0000 </r>
       <r>    0.6514    1.0000 </r>
       <r>    0.9960    1.0000 </r>
       <r>    1.3407    1.0000 </r>
       <r>    1.5688    1.0000 </r>
       <r>    2.9650    1.0000 </r>
       <r>    3.1091    1.0000 </r>
       <r>    3.2424    1.0000 </r>
       <r>    3.3935    1.0000 </r>
       <r>    4.3320    1.0000 </r>
       <r>    4.6741    1.0000 </r>
       <r>    5.0101   -0.0190 </r>
       <r>    5.0211   -0.0350 </r>
       <r>    9.9502    0.0000 </r>
       <r>   10.6681    0.0000 </r>
      </set>
      <set comment="kpoint 23">
       <r>  -48.0479    1.0000 </r>
       <r>  -48.0238    1.0000 </r>
       <r>  -47.8703    1.0000 </r>
       <r>  -47.8456    1.0000 </r>
       <r>  -47.7858    1.0000 </r>
       <r>  -47.7794    1.0000 </r>
       <r>   -8.6976    1.0000 </r>
       <r>   -8.5405    1.0000 </r>
       <r>   -0.8293    1.0000 </r>
       <r>   -0.6216    1.0000 </r>
       <r>    0.6514    1.0000 </r>
       <r>    0.9960    1.0000 </r>
       <r>    1.3407    1.0000 </r>
       <r>    1.5688    1.0000 </r>
       <r>    2.9650    1.0000 </r>
       <r>    3.1091    1.0000 </r>
       <r>    3.2424    1.0000 </r>
       <r>    3.3935    1.0000 </r>
       <r>    4.3320    1.0000 </r>
       <r>    4.6741    1.0000 </r>
       <r>    5.0101   -0.0190 </r>
       <r>    5.0211   -0.0350 </r>
       <r>    6.1220   -0.0000 </r>
       <r>    6.2246   -0.0000 </r>
      </set>
      <set comment="kpoint 24">
       <r>  -48.0120    1.0000 </r>
       <r>  -47.9533    1.0000 </r>
       <r>  -47.9385    1.0000 </r>
       <r>  -47.8790    1.0000 </r>
       <r>  -47.7905    1.0000 </r>
       <r>  -47.7754    1.0000 </r>
       <r>   -9.0901    1.0000 </r>
       <r>   -8.7342    1.0000 </r>
       <r>   -0.6411    1.0000 </r>
       <r>   -0.4607    1.0000 </r>
       <r>    0.5699    1.0000 </r>
       <r>    0.9489    1.0000 </r>
       <r>    1.1267    1.0000 </r>
       <r>    1.4999    1.0000 </r>
       <r>    2.9897    1.0000 </r>
       <r>    3.5026    1.0000 </r>
       <r>    3.8812    1.0000 </r>
       <r>    3.9994    1.0000 </r>
       <r>    4.2948    1.0000 </r>
       <r>    4.4048    1.0000 </r>
       <r>    5.6994   -0.0000 </r>
       <r>    5.8424   -0.0000 </r>
       <r>    6.4145    0.0000 </r>
       <r>    6.6436    0.0000 </r>
      </set>
      <set comment="kpoint 25">
       <r>  -48.0120    1.0000 </r>
       <r>  -47.9533    1.0000 </r>
       <r>  -47.9385    1.0000 </r>
       <r>  -47.8790    1.0000 </r>
       <r>  -47.7905    1.0000 </r>
       <r>  -47.7754    1.0000 </r>
       <r>   -9.0901    1.0000 </r>
       <r>   -8.7342    1.0000 </r>
       <r>   -0.6411    1.0000 </r>
       <r>   -0.4607    1.0000 </r>
       <r>    0.5699    1.0000 </r>
       <r>    0.9489    1.0000 </r>
       <r>    1.1267    1.0000 </r>
       <r>    1.4999    1.0000 </r>
       <r>    2.9897    1.0000 </r>
       <r>    3.5026    1.0000 </r>
       <r>    3.8812    1.0000 </r>
       <r>    3.9994    1.0000 </r>
       <r>    4.2948    1.0000 </r>
       <r>    4.4048    1.0000 </r>
       <r>    5.6994   -0.0000 </r>
       <r>    5.8424   -0.0000 </r>
       <r>    6.4145    0.0000 </r>
       <r>    6.6436    0.0000 </r>
      </set>
      <set comment="kpoint 26">
       <r>  -48.0479    1.0000 </r>
       <r>  -48.0238    1.0000 </r>
       <r>  -47.8703    1.0000 </r>
       <r>  -47.8456    1.0000 </r>
       <r>  -47.7858    1.0000 </r>
       <r>  -47.7794    1.0000 </r>
       <r>   -8.6976    1.0000 </r>
       <r>   -8.5405    1.0000 </r>
       <r>   -0.8293    1.0000 </r>
       <r>   -0.6216    1.0000 </r>
       <r>    0.6514    1.0000 </r>
       <r>    0.9960    1.0000 </r>
       <r>    1.3407    1.0000 </r>
       <r>    1.5688    1.0000 </r>
       <r>    2.9650    1.0000 </r>
       <r>    3.1091    1.0000 </r>
       <r>    3.2424    1.0000 </r>
       <r>    3.3935    1.0000 </r>
       <r>    4.3320    1.0000 </r>
       <r>    4.6741    1.0000 </r>
       <r>    5.0101   -0.0190 </r>
       <r>    5.0211   -0.0350 </r>
       <r>    6.1220   -0.0000 </r>
       <r>    6.2246   -0.0000 </r>
      </set>
      <set comment="kpoint 27">
       <r>  -48.0479    1.0000 </r>
       <r>  -48.0238    1.0000 </r>
       <r>  -47.8703    1.0000 </r>
       <r>  -47.8456    1.0000 </r>
       <r>  -47.7858    1.0000 </r>
       <r>  -47.7794    1.0000 </r>
       <r>   -8.6976    1.0000 </r>
       <r>   -8.5405    1.0000 </r>
       <r>   -0.8293    1.0000 </r>
       <r>   -0.6216    1.0000 </r>
       <r>    0.6514    1.0000 </r>
       <r>    0.9960    1.0000 </r>
       <r>    1.3407    1.0000 </r>
       <r>    1.5688    1.0000 </r>
       <r>    2.9650    1.0000 </r>
       <r>    3.1091    1.0000 </r>
       <r>    3.2424    1.0000 </r>
       <r>    3.3935    1.0000 </r>
       <r>    4.3320    1.0000 </r>
       <r>    4.6741    1.0000 </r>
       <r>    5.0101   -0.0190 </r>
       <r>    5.0211   -0.0350 </r>
       <r>    6.1220   -0.0000 </r>
       <r>    6.2246   -0.0000 </r>
      </set>
      <set comment="kpoint 28">
       <r>  -48.0120    1.0000 </r>
       <r>  -47.9533    1.0000 </r>
       <r>  -47.9385    1.0000 </r>
       <r>  -47.8790    1.0000 </r>
       <r>  -47.7905    1.0000 </r>
       <r>  -47.7754    1.0000 </r>
       <r>   -9.0901    1.0000 </r>
       <r>   -8.7342    1.0000 </r>
       <r>   -0.6411    1.0000 </r>
       <r>   -0.4607    1.0000 </r>
       <r>    0.5699    1.0000 </r>
       <r>    0.9489    1.0000 </r>
       <r>    1.1267    1.0000 </r>
       <r>    1.4999    1.0000 </r>
       <r>    2.9897    1.0000 </r>
       <r>    3.5026    1.0000 </r>
       <r>    3.8812    1.0000 </r>
       <r>    3.9994    1.0000 </r>
       <r>    4.2948    1.0000 </r>
       <r>    4.4048    1.0000 </r>
       <r>    5.6994   -0.0000 </r>
       <r>    5.8424   -0.0000 </r>
       <r>    6.4145    0.0000 </r>
       <r>    6.6436    0.0000 </r>
      </set>
      <set comment="kpoint 29">
       <r>  -48.0307    1.0000 </r>
       <r>  -48.0002    1.0000 </r>
       <r>  -47.8880    1.0000 </r>
       <r>  -47.8572    1.0000 </r>
       <r>  -47.8013    1.0000 </r>
       <r>  -47.7654    1.0000 </r>
       <r>   -9.6152    1.0000 </r>
       <r>   -8.8151    1.0000 </r>
       <r>   -0.6552    1.0000 </r>
       <r>    0.1723    1.0000 </r>
       <r>    0.6018    1.0000 </r>
       <r>    0.8389    1.0000 </r>
       <r>    1.3299    1.0000 </r>
       <r>    1.7552    1.0000 </r>
       <r>    2.3579    1.0000 </r>
       <r>    4.1339    1.0000 </r>
       <r>    4.2389    1.0000 </r>
       <r>    4.2960    1.0000 </r>
       <r>    4.8829    1.0233 </r>
       <r>    4.9093    1.0307 </r>
       <r>    5.7924   -0.0000 </r>
       <r>    5.9806   -0.0000 </r>
       <r>    6.6096    0.0000 </r>
       <r>    6.9959    0.0000 </r>
      </set>
      <set comment="kpoint 30">
       <r>  -48.0120    1.0000 </r>
       <r>  -47.9533    1.0000 </r>
       <r>  -47.9385    1.0000 </r>
       <r>  -47.8790    1.0000 </r>
       <r>  -47.7905    1.0000 </r>
       <r>  -47.7754    1.0000 </r>
       <r>   -9.0901    1.0000 </r>
       <r>   -8.7342    1.0000 </r>
       <r>   -0.6411    1.0000 </r>
       <r>   -0.4607    1.0000 </r>
       <r>    0.5699    1.0000 </r>
       <r>    0.9489    1.0000 </r>
       <r>    1.1267    1.0000 </r>
       <r>    1.4999    1.0000 </r>
       <r>    2.9897    1.0000 </r>
       <r>    3.5026    1.0000 </r>
       <r>    3.8812    1.0000 </r>
       <r>    3.9994    1.0000 </r>
       <r>    4.2948    1.0000 </r>
       <r>    4.4048    1.0000 </r>
       <r>    5.6994   -0.0000 </r>
       <r>    5.8424   -0.0000 </r>
       <r>    6.4145    0.0000 </r>
       <r>    6.6436    0.0000 </r>
      </set>
      <set comment="kpoint 31">
       <r>  -48.0120    1.0000 </r>
       <r>  -47.9533    1.0000 </r>
       <r>  -47.9385    1.0000 </r>
       <r>  -47.8790    1.0000 </r>
       <r>  -47.7905    1.0000 </r>
       <r>  -47.7754    1.0000 </r>
       <r>   -9.0901    1.0000 </r>
       <r>   -8.7342    1.0000 </r>
       <r>   -0.6411    1.0000 </r>
       <r>   -0.4607    1.0000 </r>
       <r>    0.5699    1.0000 </r>
       <r>    0.9489    1.0000 </r>
       <r>    1.1267    1.0000 </r>
       <r>    1.4999    1.0000 </r>
       <r>    2.9897    1.0000 </r>
       <r>    3.5026    1.0000 </r>
       <r>    3.8812    1.0000 </r>
       <r>    3.9994    1.0000 </r>
       <r>    4.2948    1.0000 </r>
       <r>    4.4048    1.0000 </r>
       <r>    5.6994   -0.0000 </r>
       <r>    5.8424   -0.0000 </r>
       <r>    6.4145    0.0000 </r>
       <r>    6.6436    0.0000 </r>
      </set>
      <set comment="kpoint 32">
       <r>  -48.0307    1.0000 </r>
       <r>  -48.0002    1.0000 </r>
       <r>  -47.8880    1.0000 </r>
       <r>  -47.8572    1.0000 </r>
       <r>  -47.8013    1.0000 </r>
       <r>  -47.7654    1.0000 </r>
       <r>   -9.6152    1.0000 </r>
       <r>   -8.8151    1.0000 </r>
       <r>   -0.6552    1.0000 </r>
       <r>    0.1723    1.0000 </r>
       <r>    0.6018    1.0000 </r>
       <r>    0.8389    1.0000 </r>
       <r>    1.3299    1.0000 </r>
       <r>    1.7552    1.0000 </r>
       <r>    2.3579    1.0000 </r>
       <r>    4.1339    1.0000 </r>
       <r>    4.2389    1.0000 </r>
       <r>    4.2960    1.0000 </r>
       <r>    4.8829    1.0233 </r>
       <r>    4.9093    1.0307 </r>
       <r>    5.7924   -0.0000 </r>
       <r>    5.9806   -0.0000 </r>
       <r>    6.6096    0.0000 </r>
       <r>    6.9959    0.0000 </r>
      </set>
     </set>
    </set>
   </array>
  </eigenvalues>
  <separator name="orbital magnetization" >
   <v name="MAGDIPOLOUT">      0.00000000      0.00000000      0.00000000</v>
  </separator>
  <dos>
   <i name="efermi">      4.96261576 </i>
   <total>
    <array>
     <dimension dim="1">gridpoints</dimension>
     <dimension dim="2">spin</dimension>
     <field>energy</field>
     <field>total</field>
     <field>integrated</field>
     <set>
      <set comment="spin 1">
       <r>   -50.9837     0.0000     0.0000 </r>
       <r>   -50.7684     0.0000     0.0000 </r>
       <r>   -50.5531     0.0000     0.0000 </r>
       <r>   -50.3378     0.0000     0.0000 </r>
       <r>   -50.1225     0.0000     0.0000 </r>
       <r>   -49.9073     0.0000     0.0000 </r>
       <r>   -49.6920     0.0000     0.0000 </r>
       <r>   -49.4767     0.0000     0.0000 </r>
       <r>   -49.2614     0.0000     0.0000 </r>
       <r>   -49.0461     0.0000     0.0000 </r>
       <r>   -48.8308     0.0000     0.0000 </r>
       <r>   -48.6155    -0.0000    -0.0000 </r>
       <r>   -48.4002    -0.0000    -0.0000 </r>
       <r>   -48.1849    -0.0011    -0.0002 </r>
       <r>   -47.9696    15.2692     3.2871 </r>
       <r>   -47.7543    38.4050    11.5554 </r>
       <r>   -47.5390     2.0651    12.0000 </r>
       <r>   -47.3238     0.0000    12.0000 </r>
       <r>   -47.1085     0.0000    12.0000 </r>
       <r>   -46.8932     0.0000    12.0000 </r>
       <r>   -46.6779     0.0000    12.0000 </r>
       <r>   -46.4626     0.0000    12.0000 </r>
       <r>   -46.2473     0.0000    12.0000 </r>
       <r>   -46.0320     0.0000    12.0000 </r>
       <r>   -45.8167     0.0000    12.0000 </r>
       <r>   -45.6014     0.0000    12.0000 </r>
       <r>   -45.3861     0.0000    12.0000 </r>
       <r>   -45.1708     0.0000    12.0000 </r>
       <r>   -44.9555     0.0000    12.0000 </r>
       <r>   -44.7402     0.0000    12.0000 </r>
       <r>   -44.5250     0.0000    12.0000 </r>
       <r>   -44.3097     0.0000    12.0000 </r>
       <r>   -44.0944     0.0000    12.0000 </r>
       <r>   -43.8791     0.0000    12.0000 </r>
       <r>   -43.6638     0.0000    12.0000 </r>
       <r>   -43.4485     0.0000    12.0000 </r>
       <r>   -43.2332     0.0000    12.0000 </r>
       <r>   -43.0179     0.0000    12.0000 </r>
       <r>   -42.8026     0.0000    12.0000 </r>
       <r>   -42.5873     0.0000    12.0000 </r>
       <r>   -42.3720     0.0000    12.0000 </r>
       <r>   -42.1567     0.0000    12.0000 </r>
       <r>   -41.9414     0.0000    12.0000 </r>
       <r>   -41.7262     0.0000    12.0000 </r>
       <r>   -41.5109     0.0000    12.0000 </r>
       <r>   -41.2956     0.0000    12.0000 </r>
       <r>   -41.0803     0.0000    12.0000 </r>
       <r>   -40.8650     0.0000    12.0000 </r>
       <r>   -40.6497     0.0000    12.0000 </r>
       <r>   -40.4344     0.0000    12.0000 </r>
       <r>   -40.2191     0.0000    12.0000 </r>
       <r>   -40.0038     0.0000    12.0000 </r>
       <r>   -39.7885     0.0000    12.0000 </r>
       <r>   -39.5732     0.0000    12.0000 </r>
       <r>   -39.3579     0.0000    12.0000 </r>
       <r>   -39.1427     0.0000    12.0000 </r>
       <r>   -38.9274     0.0000    12.0000 </r>
       <r>   -38.7121     0.0000    12.0000 </r>
       <r>   -38.4968     0.0000    12.0000 </r>
       <r>   -38.2815     0.0000    12.0000 </r>
       <r>   -38.0662     0.0000    12.0000 </r>
       <r>   -37.8509     0.0000    12.0000 </r>
       <r>   -37.6356     0.0000    12.0000 </r>
       <r>   -37.4203     0.0000    12.0000 </r>
       <r>   -37.2050     0.0000    12.0000 </r>
       <r>   -36.9897     0.0000    12.0000 </r>
       <r>   -36.7744     0.0000    12.0000 </r>
       <r>   -36.5591     0.0000    12.0000 </r>
       <r>   -36.3439     0.0000    12.0000 </r>
       <r>   -36.1286     0.0000    12.0000 </r>
       <r>   -35.9133     0.0000    12.0000 </r>
       <r>   -35.6980     0.0000    12.0000 </r>
       <r>   -35.4827     0.0000    12.0000 </r>
       <r>   -35.2674     0.0000    12.0000 </r>
       <r>   -35.0521     0.0000    12.0000 </r>
       <r>   -34.8368     0.0000    12.0000 </r>
       <r>   -34.6215     0.0000    12.0000 </r>
       <r>   -34.4062     0.0000    12.0000 </r>
       <r>   -34.1909     0.0000    12.0000 </r>
       <r>   -33.9756     0.0000    12.0000 </r>
       <r>   -33.7604     0.0000    12.0000 </r>
       <r>   -33.5451     0.0000    12.0000 </r>
       <r>   -33.3298     0.0000    12.0000 </r>
       <r>   -33.1145     0.0000    12.0000 </r>
       <r>   -32.8992     0.0000    12.0000 </r>
       <r>   -32.6839     0.0000    12.0000 </r>
       <r>   -32.4686     0.0000    12.0000 </r>
       <r>   -32.2533     0.0000    12.0000 </r>
       <r>   -32.0380     0.0000    12.0000 </r>
       <r>   -31.8227     0.0000    12.0000 </r>
       <r>   -31.6074     0.0000    12.0000 </r>
       <r>   -31.3921     0.0000    12.0000 </r>
       <r>   -31.1768     0.0000    12.0000 </r>
       <r>   -30.9616     0.0000    12.0000 </r>
       <r>   -30.7463     0.0000    12.0000 </r>
       <r>   -30.5310     0.0000    12.0000 </r>
       <r>   -30.3157     0.0000    12.0000 </r>
       <r>   -30.1004     0.0000    12.0000 </r>
       <r>   -29.8851     0.0000    12.0000 </r>
       <r>   -29.6698     0.0000    12.0000 </r>
       <r>   -29.4545     0.0000    12.0000 </r>
       <r>   -29.2392     0.0000    12.0000 </r>
       <r>   -29.0239     0.0000    12.0000 </r>
       <r>   -28.8086     0.0000    12.0000 </r>
       <r>   -28.5933     0.0000    12.0000 </r>
       <r>   -28.3781     0.0000    12.0000 </r>
       <r>   -28.1628     0.0000    12.0000 </r>
       <r>   -27.9475     0.0000    12.0000 </r>
       <r>   -27.7322     0.0000    12.0000 </r>
       <r>   -27.5169     0.0000    12.0000 </r>
       <r>   -27.3016     0.0000    12.0000 </r>
       <r>   -27.0863     0.0000    12.0000 </r>
       <r>   -26.8710     0.0000    12.0000 </r>
       <r>   -26.6557     0.0000    12.0000 </r>
       <r>   -26.4404     0.0000    12.0000 </r>
       <r>   -26.2251     0.0000    12.0000 </r>
       <r>   -26.0098     0.0000    12.0000 </r>
       <r>   -25.7945     0.0000    12.0000 </r>
       <r>   -25.5793     0.0000    12.0000 </r>
       <r>   -25.3640     0.0000    12.0000 </r>
       <r>   -25.1487     0.0000    12.0000 </r>
       <r>   -24.9334     0.0000    12.0000 </r>
       <r>   -24.7181     0.0000    12.0000 </r>
       <r>   -24.5028     0.0000    12.0000 </r>
       <r>   -24.2875     0.0000    12.0000 </r>
       <r>   -24.0722     0.0000    12.0000 </r>
       <r>   -23.8569     0.0000    12.0000 </r>
       <r>   -23.6416     0.0000    12.0000 </r>
       <r>   -23.4263     0.0000    12.0000 </r>
       <r>   -23.2110     0.0000    12.0000 </r>
       <r>   -22.9957     0.0000    12.0000 </r>
       <r>   -22.7805     0.0000    12.0000 </r>
       <r>   -22.5652     0.0000    12.0000 </r>
       <r>   -22.3499     0.0000    12.0000 </r>
       <r>   -22.1346     0.0000    12.0000 </r>
       <r>   -21.9193     0.0000    12.0000 </r>
       <r>   -21.7040     0.0000    12.0000 </r>
       <r>   -21.4887     0.0000    12.0000 </r>
       <r>   -21.2734     0.0000    12.0000 </r>
       <r>   -21.0581     0.0000    12.0000 </r>
       <r>   -20.8428     0.0000    12.0000 </r>
       <r>   -20.6275     0.0000    12.0000 </r>
       <r>   -20.4122     0.0000    12.0000 </r>
       <r>   -20.1970     0.0000    12.0000 </r>
       <r>   -19.9817     0.0000    12.0000 </r>
       <r>   -19.7664     0.0000    12.0000 </r>
       <r>   -19.5511     0.0000    12.0000 </r>
       <r>   -19.3358     0.0000    12.0000 </r>
       <r>   -19.1205     0.0000    12.0000 </r>
       <r>   -18.9052     0.0000    12.0000 </r>
       <r>   -18.6899     0.0000    12.0000 </r>
       <r>   -18.4746     0.0000    12.0000 </r>
       <r>   -18.2593     0.0000    12.0000 </r>
       <r>   -18.0440     0.0000    12.0000 </r>
       <r>   -17.8287     0.0000    12.0000 </r>
       <r>   -17.6134     0.0000    12.0000 </r>
       <r>   -17.3982     0.0000    12.0000 </r>
       <r>   -17.1829     0.0000    12.0000 </r>
       <r>   -16.9676     0.0000    12.0000 </r>
       <r>   -16.7523     0.0000    12.0000 </r>
       <r>   -16.5370     0.0000    12.0000 </r>
       <r>   -16.3217     0.0000    12.0000 </r>
       <r>   -16.1064     0.0000    12.0000 </r>
       <r>   -15.8911     0.0000    12.0000 </r>
       <r>   -15.6758     0.0000    12.0000 </r>
       <r>   -15.4605     0.0000    12.0000 </r>
       <r>   -15.2452     0.0000    12.0000 </r>
       <r>   -15.0299     0.0000    12.0000 </r>
       <r>   -14.8147     0.0000    12.0000 </r>
       <r>   -14.5994     0.0000    12.0000 </r>
       <r>   -14.3841     0.0000    12.0000 </r>
       <r>   -14.1688     0.0000    12.0000 </r>
       <r>   -13.9535     0.0000    12.0000 </r>
       <r>   -13.7382     0.0000    12.0000 </r>
       <r>   -13.5229     0.0000    12.0000 </r>
       <r>   -13.3076     0.0000    12.0000 </r>
       <r>   -13.0923     0.0000    12.0000 </r>
       <r>   -12.8770     0.0000    12.0000 </r>
       <r>   -12.6617     0.0000    12.0000 </r>
       <r>   -12.4464     0.0000    12.0000 </r>
       <r>   -12.2311     0.0000    12.0000 </r>
       <r>   -12.0159     0.0000    12.0000 </r>
       <r>   -11.8006     0.0000    12.0000 </r>
       <r>   -11.5853     0.0000    12.0000 </r>
       <r>   -11.3700     0.0000    12.0000 </r>
       <r>   -11.1547     0.0000    12.0000 </r>
       <r>   -10.9394     0.0000    12.0000 </r>
       <r>   -10.7241     0.0000    12.0000 </r>
       <r>   -10.5088     0.0000    12.0000 </r>
       <r>   -10.2935     0.0000    12.0000 </r>
       <r>   -10.0782    -0.0000    12.0000 </r>
       <r>    -9.8629    -0.0000    12.0000 </r>
       <r>    -9.6476     0.1368    12.0294 </r>
       <r>    -9.4324     2.1857    12.5000 </r>
       <r>    -9.2171    -0.0045    12.4990 </r>
       <r>    -9.0018     4.7223    13.5157 </r>
       <r>    -8.7865     1.8631    13.9168 </r>
       <r>    -8.5712     7.5288    15.5377 </r>
       <r>    -8.3559     2.1473    16.0000 </r>
       <r>    -8.1406    -0.0000    16.0000 </r>
       <r>    -7.9253     0.0000    16.0000 </r>
       <r>    -7.7100     0.0000    16.0000 </r>
       <r>    -7.4947     0.0000    16.0000 </r>
       <r>    -7.2794     0.0000    16.0000 </r>
       <r>    -7.0641     0.0000    16.0000 </r>
       <r>    -6.8488     0.0000    16.0000 </r>
       <r>    -6.6336     0.0000    16.0000 </r>
       <r>    -6.4183     0.0000    16.0000 </r>
       <r>    -6.2030     0.0000    16.0000 </r>
       <r>    -5.9877     0.0000    16.0000 </r>
       <r>    -5.7724     0.0000    16.0000 </r>
       <r>    -5.5571     0.0000    16.0000 </r>
       <r>    -5.3418     0.0000    16.0000 </r>
       <r>    -5.1265     0.0000    16.0000 </r>
       <r>    -4.9112     0.0000    16.0000 </r>
       <r>    -4.6959     0.0000    16.0000 </r>
       <r>    -4.4806     0.0000    16.0000 </r>
       <r>    -4.2653     0.0000    16.0000 </r>
       <r>    -4.0500     0.0000    16.0000 </r>
       <r>    -3.8348     0.0000    16.0000 </r>
       <r>    -3.6195     0.0000    16.0000 </r>
       <r>    -3.4042     0.0000    16.0000 </r>
       <r>    -3.1889     0.0000    16.0000 </r>
       <r>    -2.9736     0.0000    16.0000 </r>
       <r>    -2.7583     0.0000    16.0000 </r>
       <r>    -2.5430     0.0000    16.0000 </r>
       <r>    -2.3277     0.0000    16.0000 </r>
       <r>    -2.1124     0.0000    16.0000 </r>
       <r>    -1.8971     0.0000    16.0000 </r>
       <r>    -1.6818     0.0000    16.0000 </r>
       <r>    -1.4665     0.0000    16.0000 </r>
       <r>    -1.2513    -0.0000    16.0000 </r>
       <r>    -1.0360    -0.0000    16.0000 </r>
       <r>    -0.8207     1.4965    16.3222 </r>
       <r>    -0.6054     9.4500    18.3567 </r>
       <r>    -0.3901     5.4560    19.5313 </r>
       <r>    -0.1748    -0.1456    19.5000 </r>
       <r>     0.0405    -0.0014    19.4997 </r>
       <r>     0.2558     2.3700    20.0099 </r>
       <r>     0.4711    -0.0877    19.9910 </r>
       <r>     0.6864     9.2923    21.9916 </r>
       <r>     0.9017     2.3316    22.4936 </r>
       <r>     1.1170     8.5741    24.3395 </r>
       <r>     1.3323     5.1559    25.4495 </r>
       <r>     1.5475     7.6954    27.1063 </r>
       <r>     1.7628     3.2862    27.8138 </r>
       <r>     1.9781     0.8649    28.0000 </r>
       <r>     2.1934    -0.0000    28.0000 </r>
       <r>     2.4087     2.3845    28.5134 </r>
       <r>     2.6240    -0.0621    28.5000 </r>
       <r>     2.8393    -0.0029    28.4994 </r>
       <r>     3.0546     7.0910    30.0260 </r>
       <r>     3.2699     4.2806    30.9476 </r>
       <r>     3.4852     3.6397    31.7312 </r>
       <r>     3.7005     3.5711    32.5000 </r>
       <r>     3.9158     4.3525    33.4370 </r>
       <r>     4.1310     5.9784    34.7242 </r>
       <r>     4.3463    12.3095    37.3743 </r>
       <r>     4.5616     5.2213    38.4984 </r>
       <r>     4.7769     2.3315    39.0003 </r>
       <r>     4.9922     5.4153    40.1662 </r>
       <r>     5.2075     3.8728    41.0000 </r>
       <r>     5.4228    -0.0000    41.0000 </r>
       <r>     5.6381    -0.1648    40.9645 </r>
       <r>     5.8534    10.3766    43.1985 </r>
       <r>     6.0687     3.6974    43.9945 </r>
       <r>     6.2840     4.1580    44.8897 </r>
       <r>     6.4993     4.6537    45.8916 </r>
       <r>     6.7146     7.0475    47.4089 </r>
       <r>     6.9298    -0.2369    47.3579 </r>
       <r>     7.1451     2.4021    47.8751 </r>
       <r>     7.3604    -0.0002    47.8750 </r>
       <r>     7.5757     0.0000    47.8750 </r>
       <r>     7.7910     0.0000    47.8750 </r>
       <r>     8.0063     0.0000    47.8750 </r>
       <r>     8.2216     0.0000    47.8750 </r>
       <r>     8.4369     0.0000    47.8750 </r>
       <r>     8.6522     0.0000    47.8750 </r>
       <r>     8.8675     0.0000    47.8750 </r>
       <r>     9.0828     0.0000    47.8750 </r>
       <r>     9.2981     0.0000    47.8750 </r>
       <r>     9.5134    -0.0000    47.8750 </r>
       <r>     9.7286    -0.0000    47.8750 </r>
       <r>     9.9439     0.1145    47.8996 </r>
       <r>    10.1592     0.1758    47.9375 </r>
       <r>    10.3745    -0.0000    47.9375 </r>
       <r>    10.5898    -0.0072    47.9360 </r>
       <r>    10.8051     0.2976    48.0000 </r>
       <r>    11.0204    -0.0001    48.0000 </r>
       <r>    11.2357     0.0000    48.0000 </r>
       <r>    11.4510     0.0000    48.0000 </r>
       <r>    11.6663     0.0000    48.0000 </r>
       <r>    11.8816     0.0000    48.0000 </r>
       <r>    12.0969     0.0000    48.0000 </r>
       <r>    12.3121     0.0000    48.0000 </r>
       <r>    12.5274     0.0000    48.0000 </r>
       <r>    12.7427     0.0000    48.0000 </r>
       <r>    12.9580     0.0000    48.0000 </r>
       <r>    13.1733     0.0000    48.0000 </r>
       <r>    13.3886     0.0000    48.0000 </r>
       <r>    13.6039     0.0000    48.0000 </r>
      </set>
     </set>
    </array>
   </total>
  </dos>
 </calculation>
 <structure name="finalpos" >
  <crystal>
   <varray name="basis" >
    <v>       3.65142400       0.00000000       0.00000000 </v>
    <v>       0.00000000       3.65142400       0.00000000 </v>
    <v>       0.00000000       0.00000000       5.87394600 </v>
   </varray>
   <i name="volume">     78.31671834 </i>
   <varray name="rec_basis" >
    <v>       0.27386576       0.00000000       0.00000000 </v>
    <v>       0.00000000       0.27386576       0.00000000 </v>
    <v>       0.00000000       0.00000000       0.17024331 </v>
   </varray>
  </crystal>
  <varray name="positions" >
   <v>       0.00000000       0.00000000       0.00000000 </v>
   <v>       0.50000000       0.50000000       0.00000000 </v>
   <v>       0.00000000       0.50000000       0.24120400 </v>
   <v>       0.50000000       0.00000000       0.75879700 </v>
  </varray>
 </structure>
</modeling>
