 vasp.5.4.1 24Jun15 (build Mar  6 2017 20:45:23) complex                         
 executed on           IFC91_ompi date 2017.05.16  15:08:12
 running on    1 total cores
 distrk:  each k-point on    1 cores,    1 groups
 distr:  one band on NCORES_PER_BAND=   1 cores,    1 groups


--------------------------------------------------------------------------------------------------------


 INCAR:
 POTCAR:    PAW_PBE Al 04Jan2001                  
 POTCAR:    PAW_PBE Al 04Jan2001                  
   VRHFIN =Al: s2p1                                                             
   LEXCH  = PE                                                                  
   EATOM  =    53.5387 eV,    3.9350 Ry                                         
                                                                                
   TITEL  = PAW_PBE Al 04Jan2001                                                
   LULTRA =        F    use ultrasoft PP ?                                      
   IUNSCR =        1    unscreen: 0-lin 1-nonlin 2-no                           
   RPACOR =    1.500    partial core radius                                     
   POMASS =   26.981; ZVAL   =    3.000    mass and valenz                      
   RCORE  =    1.900    outmost cutoff radius                                   
   RWIGS  =    2.650; RWIGS  =    1.402    wigner-seitz radius (au A)           
   ENMAX  =  240.300; ENMIN  =  180.225 eV                                      
   ICORE  =        2    local potential                                         
   LCOR   =        T    correct aug charges                                     
   LPAW   =        T    paw PP                                                  
   EAUG   =  291.052                                                            
   DEXC   =    0.000                                                            
   RMAX   =    1.939    core radius for proj-oper                               
   RAUG   =    1.300    factor for augmentation sphere                          
   RDEP   =    1.966    radius for radial grids                                 
   RDEPT  =    1.856    core radius for aug-charge                              
                                                                                
   Atomic configuration                                                         
    6 entries                                                                   
     n  l   j            E        occ.                                          
     1  0  0.50     -1511.1048   2.0000                                         
     2  0  0.50      -108.1629   2.0000                                         
     2  1  1.50       -69.6402   6.0000                                         
     3  0  0.50        -7.7528   2.0000                                         
     3  1  1.50        -2.7121   1.0000                                         
     3  2  2.50        -2.7212   0.0000                                         
   Description                                                                  
     l       E           TYP  RCUT    TYP  RCUT                                 
     0     -7.7528455     23  1.900                                             
     0     -3.3096929     23  1.900                                             
     1     -2.7120682     23  1.900                                             
     1     13.6058260     23  1.900                                             
     2     -2.7211652      7  1.900                                             
  local pseudopotential read in
  partial core-charges read in
  partial kinetic energy density read in
  atomic valenz-charges read in
  non local Contribution for L=           0  read in
    real space projection operators read in
  non local Contribution for L=           0  read in
    real space projection operators read in
  non local Contribution for L=           1  read in
    real space projection operators read in
  non local Contribution for L=           1  read in
    real space projection operators read in
    PAW grid and wavefunctions read in

   number of l-projection  operators is LMAX  =           4
   number of lm-projection operators is LMMAX =           8

  PAW_PBE Al 04Jan2001                  :
 energy of atom  1       EATOM=  -53.5387
 kinetic energy error for atom=    0.0002 (will be added to EATOM!!)


 POSCAR: Al4                                     
  positions in direct lattice
  No initial velocities read in
 exchange correlation table for  LEXCH =        8
   RHO(1)=    0.500       N(1)  =     2000
   RHO(2)=  100.500       N(2)  =     4000



--------------------------------------------------------------------------------------------------------


 ion  position               nearest neighbor table
   1  0.000  0.000  0.000-   2 2.86   3 2.86   4 2.86   2 2.86   3 2.86   2 2.86   4 2.86   2 2.86
                             3 2.86   4 2.86   3 2.86   4 2.86
   2  0.000  0.500  0.500-   1 2.86   3 2.86   4 2.86   1 2.86   4 2.86   1 2.86   3 2.86   1 2.86
                             3 2.86   4 2.86   4 2.86   3 2.86
   3  0.500  0.000  0.500-   1 2.86   2 2.86   4 2.86   1 2.86   4 2.86   2 2.86   4 2.86   4 2.86
                             1 2.86   2 2.86   1 2.86   2 2.86
   4  0.500  0.500  0.000-   1 2.86   2 2.86   3 2.86   2 2.86   3 2.86   1 2.86   3 2.86   3 2.86
                             1 2.86   2 2.86   2 2.86   1 2.86

  LATTYP: Found a simple cubic cell.
 ALAT       =     4.0389300000
  
  Lattice vectors:
  
 A1 = (   4.0389300000,   0.0000000000,   0.0000000000)
 A2 = (   0.0000000000,   4.0389300000,   0.0000000000)
 A3 = (   0.0000000000,   0.0000000000,   4.0389300000)


Analysis of symmetry for initial positions (statically):
=====================================================================
 Subroutine PRICEL returns following result:
 
  LATTYP: Found a face centered cubic cell.
 ALAT       =     4.0389300000
  
  Lattice vectors:
  
 A1 = (   2.0194650000,   2.0194650000,   0.0000000000)
 A2 = (   2.0194650000,  -0.0000000000,  -2.0194650000)
 A3 = (   0.0000000000,   2.0194650000,  -2.0194650000)
 
   4 primitive cells build up your supercell.
 

 Routine SETGRP: Setting up the symmetry group for a 
 simple cubic supercell.


 Subroutine GETGRP returns: Found 48 space group operations
 (whereof 48 operations were pure point group operations)
 out of a pool of 48 trial point group operations.


The static configuration has the point symmetry O_h .


Analysis of symmetry for dynamics (positions and initial velocities):
=====================================================================
 Subroutine PRICEL returns following result:
 
  LATTYP: Found a face centered cubic cell.
 ALAT       =     4.0389300000
  
  Lattice vectors:
  
 A1 = (   2.0194650000,   2.0194650000,   0.0000000000)
 A2 = (   2.0194650000,  -0.0000000000,  -2.0194650000)
 A3 = (   0.0000000000,   2.0194650000,  -2.0194650000)
 
   4 primitive cells build up your supercell.
 

 Routine SETGRP: Setting up the symmetry group for a 
 simple cubic supercell.


 Subroutine GETGRP returns: Found 48 space group operations
 (whereof 48 operations were pure point group operations)
 out of a pool of 48 trial point group operations.


The dynamic configuration has the point symmetry O_h .


 irot  :   1
 --------------------------------------------------------------------
 isymop:   1   0   0
           0   1   0
           0   0   1

 gtrans:     0.0000000     0.0000000    -0.0000000

 ptrans:     0.0000000     0.0000000     0.0000000
 rotmap:
 (   1->   1)  (   2->   2)  (   3->   3)  (   4->   4) 

 ptrans:     0.5000000     0.5000000     0.0000000
 rotmap:
 (   1->   4)  (   2->   3)  (   3->   2)  (   4->   1) 

 ptrans:     0.5000000     0.0000000     0.5000000
 rotmap:
 (   1->   3)  (   2->   4)  (   3->   1)  (   4->   2) 

 ptrans:     0.0000000     0.5000000     0.5000000
 rotmap:
 (   1->   2)  (   2->   1)  (   3->   4)  (   4->   3) 


 irot  :   2
 --------------------------------------------------------------------
 isymop:  -1   0   0
           0  -1   0
           0   0  -1

 gtrans:     0.0000000     0.0000000    -0.0000000

 ptrans:     0.0000000     0.0000000     0.0000000
 rotmap:
 (   1->   1)  (   2->   2)  (   3->   3)  (   4->   4) 

 ptrans:     0.5000000     0.5000000     0.0000000
 rotmap:
 (   1->   4)  (   2->   3)  (   3->   2)  (   4->   1) 

 ptrans:     0.5000000     0.0000000     0.5000000
 rotmap:
 (   1->   3)  (   2->   4)  (   3->   1)  (   4->   2) 

 ptrans:     0.0000000     0.5000000     0.5000000
 rotmap:
 (   1->   2)  (   2->   1)  (   3->   4)  (   4->   3) 


 irot  :   3
 --------------------------------------------------------------------
 isymop:   0   0   1
           1   0   0
           0   1   0

 gtrans:     0.0000000     0.0000000    -0.0000000

 ptrans:     0.0000000     0.0000000     0.0000000
 rotmap:
 (   1->   1)  (   2->   3)  (   3->   4)  (   4->   2) 

 ptrans:     0.5000000     0.5000000     0.0000000
 rotmap:
 (   1->   4)  (   2->   2)  (   3->   1)  (   4->   3) 

 ptrans:     0.5000000     0.0000000     0.5000000
 rotmap:
 (   1->   3)  (   2->   1)  (   3->   2)  (   4->   4) 

 ptrans:     0.0000000     0.5000000     0.5000000
 rotmap:
 (   1->   2)  (   2->   4)  (   3->   3)  (   4->   1) 


 irot  :   4
 --------------------------------------------------------------------
 isymop:   0   0  -1
          -1   0   0
           0  -1   0

 gtrans:     0.0000000     0.0000000    -0.0000000

 ptrans:     0.0000000     0.0000000     0.0000000
 rotmap:
 (   1->   1)  (   2->   3)  (   3->   4)  (   4->   2) 

 ptrans:     0.5000000     0.5000000     0.0000000
 rotmap:
 (   1->   4)  (   2->   2)  (   3->   1)  (   4->   3) 

 ptrans:     0.5000000     0.0000000     0.5000000
 rotmap:
 (   1->   3)  (   2->   1)  (   3->   2)  (   4->   4) 

 ptrans:     0.0000000     0.5000000     0.5000000
 rotmap:
 (   1->   2)  (   2->   4)  (   3->   3)  (   4->   1) 


 irot  :   5
 --------------------------------------------------------------------
 isymop:   0   1   0
           0   0   1
           1   0   0

 gtrans:     0.0000000     0.0000000    -0.0000000

 ptrans:     0.0000000     0.0000000     0.0000000
 rotmap:
 (   1->   1)  (   2->   4)  (   3->   2)  (   4->   3) 

 ptrans:     0.5000000     0.5000000     0.0000000
 rotmap:
 (   1->   4)  (   2->   1)  (   3->   3)  (   4->   2) 

 ptrans:     0.5000000     0.0000000     0.5000000
 rotmap:
 (   1->   3)  (   2->   2)  (   3->   4)  (   4->   1) 

 ptrans:     0.0000000     0.5000000     0.5000000
 rotmap:
 (   1->   2)  (   2->   3)  (   3->   1)  (   4->   4) 


 irot  :   6
 --------------------------------------------------------------------
 isymop:   0  -1   0
           0   0  -1
          -1   0   0

 gtrans:     0.0000000     0.0000000    -0.0000000

 ptrans:     0.0000000     0.0000000     0.0000000
 rotmap:
 (   1->   1)  (   2->   4)  (   3->   2)  (   4->   3) 

 ptrans:     0.5000000     0.5000000     0.0000000
 rotmap:
 (   1->   4)  (   2->   1)  (   3->   3)  (   4->   2) 

 ptrans:     0.5000000     0.0000000     0.5000000
 rotmap:
 (   1->   3)  (   2->   2)  (   3->   4)  (   4->   1) 

 ptrans:     0.0000000     0.5000000     0.5000000
 rotmap:
 (   1->   2)  (   2->   3)  (   3->   1)  (   4->   4) 


 irot  :   7
 --------------------------------------------------------------------
 isymop:   0  -1   0
           1   0   0
           0   0   1

 gtrans:     0.0000000     0.0000000    -0.0000000

 ptrans:     0.0000000     0.0000000     0.0000000
 rotmap:
 (   1->   1)  (   2->   3)  (   3->   2)  (   4->   4) 

 ptrans:     0.5000000     0.5000000     0.0000000
 rotmap:
 (   1->   4)  (   2->   2)  (   3->   3)  (   4->   1) 

 ptrans:     0.5000000     0.0000000     0.5000000
 rotmap:
 (   1->   3)  (   2->   1)  (   3->   4)  (   4->   2) 

 ptrans:     0.0000000     0.5000000     0.5000000
 rotmap:
 (   1->   2)  (   2->   4)  (   3->   1)  (   4->   3) 


 irot  :   8
 --------------------------------------------------------------------
 isymop:   0   1   0
          -1   0   0
           0   0  -1

 gtrans:     0.0000000     0.0000000    -0.0000000

 ptrans:     0.0000000     0.0000000     0.0000000
 rotmap:
 (   1->   1)  (   2->   3)  (   3->   2)  (   4->   4) 

 ptrans:     0.5000000     0.5000000     0.0000000
 rotmap:
 (   1->   4)  (   2->   2)  (   3->   3)  (   4->   1) 

 ptrans:     0.5000000     0.0000000     0.5000000
 rotmap:
 (   1->   3)  (   2->   1)  (   3->   4)  (   4->   2) 

 ptrans:     0.0000000     0.5000000     0.5000000
 rotmap:
 (   1->   2)  (   2->   4)  (   3->   1)  (   4->   3) 


 irot  :   9
 --------------------------------------------------------------------
 isymop:  -1   0   0
           0   0   1
           0   1   0

 gtrans:     0.0000000     0.0000000    -0.0000000

 ptrans:     0.0000000     0.0000000     0.0000000
 rotmap:
 (   1->   1)  (   2->   2)  (   3->   4)  (   4->   3) 

 ptrans:     0.5000000     0.5000000     0.0000000
 rotmap:
 (   1->   4)  (   2->   3)  (   3->   1)  (   4->   2) 

 ptrans:     0.5000000     0.0000000     0.5000000
 rotmap:
 (   1->   3)  (   2->   4)  (   3->   2)  (   4->   1) 

 ptrans:     0.0000000     0.5000000     0.5000000
 rotmap:
 (   1->   2)  (   2->   1)  (   3->   3)  (   4->   4) 


 irot  :  10
 --------------------------------------------------------------------
 isymop:   1   0   0
           0   0  -1
           0  -1   0

 gtrans:     0.0000000     0.0000000    -0.0000000

 ptrans:     0.0000000     0.0000000     0.0000000
 rotmap:
 (   1->   1)  (   2->   2)  (   3->   4)  (   4->   3) 

 ptrans:     0.5000000     0.5000000     0.0000000
 rotmap:
 (   1->   4)  (   2->   3)  (   3->   1)  (   4->   2) 

 ptrans:     0.5000000     0.0000000     0.5000000
 rotmap:
 (   1->   3)  (   2->   4)  (   3->   2)  (   4->   1) 

 ptrans:     0.0000000     0.5000000     0.5000000
 rotmap:
 (   1->   2)  (   2->   1)  (   3->   3)  (   4->   4) 


 irot  :  11
 --------------------------------------------------------------------
 isymop:   0   0  -1
           0   1   0
           1   0   0

 gtrans:     0.0000000     0.0000000    -0.0000000

 ptrans:     0.0000000     0.0000000     0.0000000
 rotmap:
 (   1->   1)  (   2->   4)  (   3->   3)  (   4->   2) 

 ptrans:     0.5000000     0.5000000     0.0000000
 rotmap:
 (   1->   4)  (   2->   1)  (   3->   2)  (   4->   3) 

 ptrans:     0.5000000     0.0000000     0.5000000
 rotmap:
 (   1->   3)  (   2->   2)  (   3->   1)  (   4->   4) 

 ptrans:     0.0000000     0.5000000     0.5000000
 rotmap:
 (   1->   2)  (   2->   3)  (   3->   4)  (   4->   1) 


 irot  :  12
 --------------------------------------------------------------------
 isymop:   0   0   1
           0  -1   0
          -1   0   0

 gtrans:     0.0000000     0.0000000    -0.0000000

 ptrans:     0.0000000     0.0000000     0.0000000
 rotmap:
 (   1->   1)  (   2->   4)  (   3->   3)  (   4->   2) 

 ptrans:     0.5000000     0.5000000     0.0000000
 rotmap:
 (   1->   4)  (   2->   1)  (   3->   2)  (   4->   3) 

 ptrans:     0.5000000     0.0000000     0.5000000
 rotmap:
 (   1->   3)  (   2->   2)  (   3->   1)  (   4->   4) 

 ptrans:     0.0000000     0.5000000     0.5000000
 rotmap:
 (   1->   2)  (   2->   3)  (   3->   4)  (   4->   1) 


 irot  :  13
 --------------------------------------------------------------------
 isymop:  -1   0   0
           0  -1   0
           0   0   1

 gtrans:     0.0000000     0.0000000    -0.0000000

 ptrans:     0.0000000     0.0000000     0.0000000
 rotmap:
 (   1->   1)  (   2->   2)  (   3->   3)  (   4->   4) 

 ptrans:     0.5000000     0.5000000     0.0000000
 rotmap:
 (   1->   4)  (   2->   3)  (   3->   2)  (   4->   1) 

 ptrans:     0.5000000     0.0000000     0.5000000
 rotmap:
 (   1->   3)  (   2->   4)  (   3->   1)  (   4->   2) 

 ptrans:     0.0000000     0.5000000     0.5000000
 rotmap:
 (   1->   2)  (   2->   1)  (   3->   4)  (   4->   3) 


 irot  :  14
 --------------------------------------------------------------------
 isymop:   1   0   0
           0   1   0
           0   0  -1

 gtrans:     0.0000000     0.0000000    -0.0000000

 ptrans:     0.0000000     0.0000000     0.0000000
 rotmap:
 (   1->   1)  (   2->   2)  (   3->   3)  (   4->   4) 

 ptrans:     0.5000000     0.5000000     0.0000000
 rotmap:
 (   1->   4)  (   2->   3)  (   3->   2)  (   4->   1) 

 ptrans:     0.5000000     0.0000000     0.5000000
 rotmap:
 (   1->   3)  (   2->   4)  (   3->   1)  (   4->   2) 

 ptrans:     0.0000000     0.5000000     0.5000000
 rotmap:
 (   1->   2)  (   2->   1)  (   3->   4)  (   4->   3) 


 irot  :  15
 --------------------------------------------------------------------
 isymop:   0   0  -1
          -1   0   0
           0   1   0

 gtrans:     0.0000000     0.0000000    -0.0000000

 ptrans:     0.0000000     0.0000000     0.0000000
 rotmap:
 (   1->   1)  (   2->   3)  (   3->   4)  (   4->   2) 

 ptrans:     0.5000000     0.5000000     0.0000000
 rotmap:
 (   1->   4)  (   2->   2)  (   3->   1)  (   4->   3) 

 ptrans:     0.5000000     0.0000000     0.5000000
 rotmap:
 (   1->   3)  (   2->   1)  (   3->   2)  (   4->   4) 

 ptrans:     0.0000000     0.5000000     0.5000000
 rotmap:
 (   1->   2)  (   2->   4)  (   3->   3)  (   4->   1) 


 irot  :  16
 --------------------------------------------------------------------
 isymop:   0   0   1
           1   0   0
           0  -1   0

 gtrans:     0.0000000     0.0000000    -0.0000000

 ptrans:     0.0000000     0.0000000     0.0000000
 rotmap:
 (   1->   1)  (   2->   3)  (   3->   4)  (   4->   2) 

 ptrans:     0.5000000     0.5000000     0.0000000
 rotmap:
 (   1->   4)  (   2->   2)  (   3->   1)  (   4->   3) 

 ptrans:     0.5000000     0.0000000     0.5000000
 rotmap:
 (   1->   3)  (   2->   1)  (   3->   2)  (   4->   4) 

 ptrans:     0.0000000     0.5000000     0.5000000
 rotmap:
 (   1->   2)  (   2->   4)  (   3->   3)  (   4->   1) 


 irot  :  17
 --------------------------------------------------------------------
 isymop:   0  -1   0
           0   0  -1
           1   0   0

 gtrans:     0.0000000     0.0000000    -0.0000000

 ptrans:     0.0000000     0.0000000     0.0000000
 rotmap:
 (   1->   1)  (   2->   4)  (   3->   2)  (   4->   3) 

 ptrans:     0.5000000     0.5000000     0.0000000
 rotmap:
 (   1->   4)  (   2->   1)  (   3->   3)  (   4->   2) 

 ptrans:     0.5000000     0.0000000     0.5000000
 rotmap:
 (   1->   3)  (   2->   2)  (   3->   4)  (   4->   1) 

 ptrans:     0.0000000     0.5000000     0.5000000
 rotmap:
 (   1->   2)  (   2->   3)  (   3->   1)  (   4->   4) 


 irot  :  18
 --------------------------------------------------------------------
 isymop:   0   1   0
           0   0   1
          -1   0   0

 gtrans:     0.0000000     0.0000000    -0.0000000

 ptrans:     0.0000000     0.0000000     0.0000000
 rotmap:
 (   1->   1)  (   2->   4)  (   3->   2)  (   4->   3) 

 ptrans:     0.5000000     0.5000000     0.0000000
 rotmap:
 (   1->   4)  (   2->   1)  (   3->   3)  (   4->   2) 

 ptrans:     0.5000000     0.0000000     0.5000000
 rotmap:
 (   1->   3)  (   2->   2)  (   3->   4)  (   4->   1) 

 ptrans:     0.0000000     0.5000000     0.5000000
 rotmap:
 (   1->   2)  (   2->   3)  (   3->   1)  (   4->   4) 


 irot  :  19
 --------------------------------------------------------------------
 isymop:   0   1   0
          -1   0   0
           0   0   1

 gtrans:     0.0000000     0.0000000    -0.0000000

 ptrans:     0.0000000     0.0000000     0.0000000
 rotmap:
 (   1->   1)  (   2->   3)  (   3->   2)  (   4->   4) 

 ptrans:     0.5000000     0.5000000     0.0000000
 rotmap:
 (   1->   4)  (   2->   2)  (   3->   3)  (   4->   1) 

 ptrans:     0.5000000     0.0000000     0.5000000
 rotmap:
 (   1->   3)  (   2->   1)  (   3->   4)  (   4->   2) 

 ptrans:     0.0000000     0.5000000     0.5000000
 rotmap:
 (   1->   2)  (   2->   4)  (   3->   1)  (   4->   3) 


 irot  :  20
 --------------------------------------------------------------------
 isymop:   0  -1   0
           1   0   0
           0   0  -1

 gtrans:     0.0000000     0.0000000    -0.0000000

 ptrans:     0.0000000     0.0000000     0.0000000
 rotmap:
 (   1->   1)  (   2->   3)  (   3->   2)  (   4->   4) 

 ptrans:     0.5000000     0.5000000     0.0000000
 rotmap:
 (   1->   4)  (   2->   2)  (   3->   3)  (   4->   1) 

 ptrans:     0.5000000     0.0000000     0.5000000
 rotmap:
 (   1->   3)  (   2->   1)  (   3->   4)  (   4->   2) 

 ptrans:     0.0000000     0.5000000     0.5000000
 rotmap:
 (   1->   2)  (   2->   4)  (   3->   1)  (   4->   3) 


 irot  :  21
 --------------------------------------------------------------------
 isymop:   1   0   0
           0   0  -1
           0   1   0

 gtrans:     0.0000000     0.0000000    -0.0000000

 ptrans:     0.0000000     0.0000000     0.0000000
 rotmap:
 (   1->   1)  (   2->   2)  (   3->   4)  (   4->   3) 

 ptrans:     0.5000000     0.5000000     0.0000000
 rotmap:
 (   1->   4)  (   2->   3)  (   3->   1)  (   4->   2) 

 ptrans:     0.5000000     0.0000000     0.5000000
 rotmap:
 (   1->   3)  (   2->   4)  (   3->   2)  (   4->   1) 

 ptrans:     0.0000000     0.5000000     0.5000000
 rotmap:
 (   1->   2)  (   2->   1)  (   3->   3)  (   4->   4) 


 irot  :  22
 --------------------------------------------------------------------
 isymop:  -1   0   0
           0   0   1
           0  -1   0

 gtrans:     0.0000000     0.0000000    -0.0000000

 ptrans:     0.0000000     0.0000000     0.0000000
 rotmap:
 (   1->   1)  (   2->   2)  (   3->   4)  (   4->   3) 

 ptrans:     0.5000000     0.5000000     0.0000000
 rotmap:
 (   1->   4)  (   2->   3)  (   3->   1)  (   4->   2) 

 ptrans:     0.5000000     0.0000000     0.5000000
 rotmap:
 (   1->   3)  (   2->   4)  (   3->   2)  (   4->   1) 

 ptrans:     0.0000000     0.5000000     0.5000000
 rotmap:
 (   1->   2)  (   2->   1)  (   3->   3)  (   4->   4) 


 irot  :  23
 --------------------------------------------------------------------
 isymop:   0   0   1
           0  -1   0
           1   0   0

 gtrans:     0.0000000     0.0000000    -0.0000000

 ptrans:     0.0000000     0.0000000     0.0000000
 rotmap:
 (   1->   1)  (   2->   4)  (   3->   3)  (   4->   2) 

 ptrans:     0.5000000     0.5000000     0.0000000
 rotmap:
 (   1->   4)  (   2->   1)  (   3->   2)  (   4->   3) 

 ptrans:     0.5000000     0.0000000     0.5000000
 rotmap:
 (   1->   3)  (   2->   2)  (   3->   1)  (   4->   4) 

 ptrans:     0.0000000     0.5000000     0.5000000
 rotmap:
 (   1->   2)  (   2->   3)  (   3->   4)  (   4->   1) 


 irot  :  24
 --------------------------------------------------------------------
 isymop:   0   0  -1
           0   1   0
          -1   0   0

 gtrans:     0.0000000     0.0000000    -0.0000000

 ptrans:     0.0000000     0.0000000     0.0000000
 rotmap:
 (   1->   1)  (   2->   4)  (   3->   3)  (   4->   2) 

 ptrans:     0.5000000     0.5000000     0.0000000
 rotmap:
 (   1->   4)  (   2->   1)  (   3->   2)  (   4->   3) 

 ptrans:     0.5000000     0.0000000     0.5000000
 rotmap:
 (   1->   3)  (   2->   2)  (   3->   1)  (   4->   4) 

 ptrans:     0.0000000     0.5000000     0.5000000
 rotmap:
 (   1->   2)  (   2->   3)  (   3->   4)  (   4->   1) 


 irot  :  25
 --------------------------------------------------------------------
 isymop:   0   0   1
          -1   0   0
           0  -1   0

 gtrans:     0.0000000     0.0000000    -0.0000000

 ptrans:     0.0000000     0.0000000     0.0000000
 rotmap:
 (   1->   1)  (   2->   3)  (   3->   4)  (   4->   2) 

 ptrans:     0.5000000     0.5000000     0.0000000
 rotmap:
 (   1->   4)  (   2->   2)  (   3->   1)  (   4->   3) 

 ptrans:     0.5000000     0.0000000     0.5000000
 rotmap:
 (   1->   3)  (   2->   1)  (   3->   2)  (   4->   4) 

 ptrans:     0.0000000     0.5000000     0.5000000
 rotmap:
 (   1->   2)  (   2->   4)  (   3->   3)  (   4->   1) 


 irot  :  26
 --------------------------------------------------------------------
 isymop:   0   0  -1
           1   0   0
           0   1   0

 gtrans:     0.0000000     0.0000000    -0.0000000

 ptrans:     0.0000000     0.0000000     0.0000000
 rotmap:
 (   1->   1)  (   2->   3)  (   3->   4)  (   4->   2) 

 ptrans:     0.5000000     0.5000000     0.0000000
 rotmap:
 (   1->   4)  (   2->   2)  (   3->   1)  (   4->   3) 

 ptrans:     0.5000000     0.0000000     0.5000000
 rotmap:
 (   1->   3)  (   2->   1)  (   3->   2)  (   4->   4) 

 ptrans:     0.0000000     0.5000000     0.5000000
 rotmap:
 (   1->   2)  (   2->   4)  (   3->   3)  (   4->   1) 


 irot  :  27
 --------------------------------------------------------------------
 isymop:   0   1   0
           0   0  -1
          -1   0   0

 gtrans:     0.0000000     0.0000000    -0.0000000

 ptrans:     0.0000000     0.0000000     0.0000000
 rotmap:
 (   1->   1)  (   2->   4)  (   3->   2)  (   4->   3) 

 ptrans:     0.5000000     0.5000000     0.0000000
 rotmap:
 (   1->   4)  (   2->   1)  (   3->   3)  (   4->   2) 

 ptrans:     0.5000000     0.0000000     0.5000000
 rotmap:
 (   1->   3)  (   2->   2)  (   3->   4)  (   4->   1) 

 ptrans:     0.0000000     0.5000000     0.5000000
 rotmap:
 (   1->   2)  (   2->   3)  (   3->   1)  (   4->   4) 


 irot  :  28
 --------------------------------------------------------------------
 isymop:   0  -1   0
           0   0   1
           1   0   0

 gtrans:     0.0000000     0.0000000    -0.0000000

 ptrans:     0.0000000     0.0000000     0.0000000
 rotmap:
 (   1->   1)  (   2->   4)  (   3->   2)  (   4->   3) 

 ptrans:     0.5000000     0.5000000     0.0000000
 rotmap:
 (   1->   4)  (   2->   1)  (   3->   3)  (   4->   2) 

 ptrans:     0.5000000     0.0000000     0.5000000
 rotmap:
 (   1->   3)  (   2->   2)  (   3->   4)  (   4->   1) 

 ptrans:     0.0000000     0.5000000     0.5000000
 rotmap:
 (   1->   2)  (   2->   3)  (   3->   1)  (   4->   4) 


 irot  :  29
 --------------------------------------------------------------------
 isymop:   1   0   0
           0  -1   0
           0   0  -1

 gtrans:     0.0000000     0.0000000    -0.0000000

 ptrans:     0.0000000     0.0000000     0.0000000
 rotmap:
 (   1->   1)  (   2->   2)  (   3->   3)  (   4->   4) 

 ptrans:     0.5000000     0.5000000     0.0000000
 rotmap:
 (   1->   4)  (   2->   3)  (   3->   2)  (   4->   1) 

 ptrans:     0.5000000     0.0000000     0.5000000
 rotmap:
 (   1->   3)  (   2->   4)  (   3->   1)  (   4->   2) 

 ptrans:     0.0000000     0.5000000     0.5000000
 rotmap:
 (   1->   2)  (   2->   1)  (   3->   4)  (   4->   3) 


 irot  :  30
 --------------------------------------------------------------------
 isymop:  -1   0   0
           0   1   0
           0   0   1

 gtrans:     0.0000000     0.0000000    -0.0000000

 ptrans:     0.0000000     0.0000000     0.0000000
 rotmap:
 (   1->   1)  (   2->   2)  (   3->   3)  (   4->   4) 

 ptrans:     0.5000000     0.5000000     0.0000000
 rotmap:
 (   1->   4)  (   2->   3)  (   3->   2)  (   4->   1) 

 ptrans:     0.5000000     0.0000000     0.5000000
 rotmap:
 (   1->   3)  (   2->   4)  (   3->   1)  (   4->   2) 

 ptrans:     0.0000000     0.5000000     0.5000000
 rotmap:
 (   1->   2)  (   2->   1)  (   3->   4)  (   4->   3) 


 irot  :  31
 --------------------------------------------------------------------
 isymop:   0   0   1
           0   1   0
          -1   0   0

 gtrans:     0.0000000     0.0000000    -0.0000000

 ptrans:     0.0000000     0.0000000     0.0000000
 rotmap:
 (   1->   1)  (   2->   4)  (   3->   3)  (   4->   2) 

 ptrans:     0.5000000     0.5000000     0.0000000
 rotmap:
 (   1->   4)  (   2->   1)  (   3->   2)  (   4->   3) 

 ptrans:     0.5000000     0.0000000     0.5000000
 rotmap:
 (   1->   3)  (   2->   2)  (   3->   1)  (   4->   4) 

 ptrans:     0.0000000     0.5000000     0.5000000
 rotmap:
 (   1->   2)  (   2->   3)  (   3->   4)  (   4->   1) 


 irot  :  32
 --------------------------------------------------------------------
 isymop:   0   0  -1
           0  -1   0
           1   0   0

 gtrans:     0.0000000     0.0000000    -0.0000000

 ptrans:     0.0000000     0.0000000     0.0000000
 rotmap:
 (   1->   1)  (   2->   4)  (   3->   3)  (   4->   2) 

 ptrans:     0.5000000     0.5000000     0.0000000
 rotmap:
 (   1->   4)  (   2->   1)  (   3->   2)  (   4->   3) 

 ptrans:     0.5000000     0.0000000     0.5000000
 rotmap:
 (   1->   3)  (   2->   2)  (   3->   1)  (   4->   4) 

 ptrans:     0.0000000     0.5000000     0.5000000
 rotmap:
 (   1->   2)  (   2->   3)  (   3->   4)  (   4->   1) 


 irot  :  33
 --------------------------------------------------------------------
 isymop:   0   1   0
           1   0   0
           0   0  -1

 gtrans:     0.0000000     0.0000000    -0.0000000

 ptrans:     0.0000000     0.0000000     0.0000000
 rotmap:
 (   1->   1)  (   2->   3)  (   3->   2)  (   4->   4) 

 ptrans:     0.5000000     0.5000000     0.0000000
 rotmap:
 (   1->   4)  (   2->   2)  (   3->   3)  (   4->   1) 

 ptrans:     0.5000000     0.0000000     0.5000000
 rotmap:
 (   1->   3)  (   2->   1)  (   3->   4)  (   4->   2) 

 ptrans:     0.0000000     0.5000000     0.5000000
 rotmap:
 (   1->   2)  (   2->   4)  (   3->   1)  (   4->   3) 


 irot  :  34
 --------------------------------------------------------------------
 isymop:   0  -1   0
          -1   0   0
           0   0   1

 gtrans:     0.0000000     0.0000000    -0.0000000

 ptrans:     0.0000000     0.0000000     0.0000000
 rotmap:
 (   1->   1)  (   2->   3)  (   3->   2)  (   4->   4) 

 ptrans:     0.5000000     0.5000000     0.0000000
 rotmap:
 (   1->   4)  (   2->   2)  (   3->   3)  (   4->   1) 

 ptrans:     0.5000000     0.0000000     0.5000000
 rotmap:
 (   1->   3)  (   2->   1)  (   3->   4)  (   4->   2) 

 ptrans:     0.0000000     0.5000000     0.5000000
 rotmap:
 (   1->   2)  (   2->   4)  (   3->   1)  (   4->   3) 


 irot  :  35
 --------------------------------------------------------------------
 isymop:   1   0   0
           0   0   1
           0  -1   0

 gtrans:     0.0000000     0.0000000    -0.0000000

 ptrans:     0.0000000     0.0000000     0.0000000
 rotmap:
 (   1->   1)  (   2->   2)  (   3->   4)  (   4->   3) 

 ptrans:     0.5000000     0.5000000     0.0000000
 rotmap:
 (   1->   4)  (   2->   3)  (   3->   1)  (   4->   2) 

 ptrans:     0.5000000     0.0000000     0.5000000
 rotmap:
 (   1->   3)  (   2->   4)  (   3->   2)  (   4->   1) 

 ptrans:     0.0000000     0.5000000     0.5000000
 rotmap:
 (   1->   2)  (   2->   1)  (   3->   3)  (   4->   4) 


 irot  :  36
 --------------------------------------------------------------------
 isymop:  -1   0   0
           0   0  -1
           0   1   0

 gtrans:     0.0000000     0.0000000    -0.0000000

 ptrans:     0.0000000     0.0000000     0.0000000
 rotmap:
 (   1->   1)  (   2->   2)  (   3->   4)  (   4->   3) 

 ptrans:     0.5000000     0.5000000     0.0000000
 rotmap:
 (   1->   4)  (   2->   3)  (   3->   1)  (   4->   2) 

 ptrans:     0.5000000     0.0000000     0.5000000
 rotmap:
 (   1->   3)  (   2->   4)  (   3->   2)  (   4->   1) 

 ptrans:     0.0000000     0.5000000     0.5000000
 rotmap:
 (   1->   2)  (   2->   1)  (   3->   3)  (   4->   4) 


 irot  :  37
 --------------------------------------------------------------------
 isymop:   0  -1   0
           0   0   1
          -1   0   0

 gtrans:     0.0000000     0.0000000    -0.0000000

 ptrans:     0.0000000     0.0000000     0.0000000
 rotmap:
 (   1->   1)  (   2->   4)  (   3->   2)  (   4->   3) 

 ptrans:     0.5000000     0.5000000     0.0000000
 rotmap:
 (   1->   4)  (   2->   1)  (   3->   3)  (   4->   2) 

 ptrans:     0.5000000     0.0000000     0.5000000
 rotmap:
 (   1->   3)  (   2->   2)  (   3->   4)  (   4->   1) 

 ptrans:     0.0000000     0.5000000     0.5000000
 rotmap:
 (   1->   2)  (   2->   3)  (   3->   1)  (   4->   4) 


 irot  :  38
 --------------------------------------------------------------------
 isymop:   0   1   0
           0   0  -1
           1   0   0

 gtrans:     0.0000000     0.0000000    -0.0000000

 ptrans:     0.0000000     0.0000000     0.0000000
 rotmap:
 (   1->   1)  (   2->   4)  (   3->   2)  (   4->   3) 

 ptrans:     0.5000000     0.5000000     0.0000000
 rotmap:
 (   1->   4)  (   2->   1)  (   3->   3)  (   4->   2) 

 ptrans:     0.5000000     0.0000000     0.5000000
 rotmap:
 (   1->   3)  (   2->   2)  (   3->   4)  (   4->   1) 

 ptrans:     0.0000000     0.5000000     0.5000000
 rotmap:
 (   1->   2)  (   2->   3)  (   3->   1)  (   4->   4) 


 irot  :  39
 --------------------------------------------------------------------
 isymop:  -1   0   0
           0   1   0
           0   0  -1

 gtrans:     0.0000000     0.0000000    -0.0000000

 ptrans:     0.0000000     0.0000000     0.0000000
 rotmap:
 (   1->   1)  (   2->   2)  (   3->   3)  (   4->   4) 

 ptrans:     0.5000000     0.5000000     0.0000000
 rotmap:
 (   1->   4)  (   2->   3)  (   3->   2)  (   4->   1) 

 ptrans:     0.5000000     0.0000000     0.5000000
 rotmap:
 (   1->   3)  (   2->   4)  (   3->   1)  (   4->   2) 

 ptrans:     0.0000000     0.5000000     0.5000000
 rotmap:
 (   1->   2)  (   2->   1)  (   3->   4)  (   4->   3) 


 irot  :  40
 --------------------------------------------------------------------
 isymop:   1   0   0
           0  -1   0
           0   0   1

 gtrans:     0.0000000     0.0000000    -0.0000000

 ptrans:     0.0000000     0.0000000     0.0000000
 rotmap:
 (   1->   1)  (   2->   2)  (   3->   3)  (   4->   4) 

 ptrans:     0.5000000     0.5000000     0.0000000
 rotmap:
 (   1->   4)  (   2->   3)  (   3->   2)  (   4->   1) 

 ptrans:     0.5000000     0.0000000     0.5000000
 rotmap:
 (   1->   3)  (   2->   4)  (   3->   1)  (   4->   2) 

 ptrans:     0.0000000     0.5000000     0.5000000
 rotmap:
 (   1->   2)  (   2->   1)  (   3->   4)  (   4->   3) 


 irot  :  41
 --------------------------------------------------------------------
 isymop:   0   0  -1
           1   0   0
           0  -1   0

 gtrans:     0.0000000     0.0000000    -0.0000000

 ptrans:     0.0000000     0.0000000     0.0000000
 rotmap:
 (   1->   1)  (   2->   3)  (   3->   4)  (   4->   2) 

 ptrans:     0.5000000     0.5000000     0.0000000
 rotmap:
 (   1->   4)  (   2->   2)  (   3->   1)  (   4->   3) 

 ptrans:     0.5000000     0.0000000     0.5000000
 rotmap:
 (   1->   3)  (   2->   1)  (   3->   2)  (   4->   4) 

 ptrans:     0.0000000     0.5000000     0.5000000
 rotmap:
 (   1->   2)  (   2->   4)  (   3->   3)  (   4->   1) 


 irot  :  42
 --------------------------------------------------------------------
 isymop:   0   0   1
          -1   0   0
           0   1   0

 gtrans:     0.0000000     0.0000000    -0.0000000

 ptrans:     0.0000000     0.0000000     0.0000000
 rotmap:
 (   1->   1)  (   2->   3)  (   3->   4)  (   4->   2) 

 ptrans:     0.5000000     0.5000000     0.0000000
 rotmap:
 (   1->   4)  (   2->   2)  (   3->   1)  (   4->   3) 

 ptrans:     0.5000000     0.0000000     0.5000000
 rotmap:
 (   1->   3)  (   2->   1)  (   3->   2)  (   4->   4) 

 ptrans:     0.0000000     0.5000000     0.5000000
 rotmap:
 (   1->   2)  (   2->   4)  (   3->   3)  (   4->   1) 


 irot  :  43
 --------------------------------------------------------------------
 isymop:  -1   0   0
           0   0  -1
           0  -1   0

 gtrans:     0.0000000     0.0000000    -0.0000000

 ptrans:     0.0000000     0.0000000     0.0000000
 rotmap:
 (   1->   1)  (   2->   2)  (   3->   4)  (   4->   3) 

 ptrans:     0.5000000     0.5000000     0.0000000
 rotmap:
 (   1->   4)  (   2->   3)  (   3->   1)  (   4->   2) 

 ptrans:     0.5000000     0.0000000     0.5000000
 rotmap:
 (   1->   3)  (   2->   4)  (   3->   2)  (   4->   1) 

 ptrans:     0.0000000     0.5000000     0.5000000
 rotmap:
 (   1->   2)  (   2->   1)  (   3->   3)  (   4->   4) 


 irot  :  44
 --------------------------------------------------------------------
 isymop:   1   0   0
           0   0   1
           0   1   0

 gtrans:     0.0000000     0.0000000    -0.0000000

 ptrans:     0.0000000     0.0000000     0.0000000
 rotmap:
 (   1->   1)  (   2->   2)  (   3->   4)  (   4->   3) 

 ptrans:     0.5000000     0.5000000     0.0000000
 rotmap:
 (   1->   4)  (   2->   3)  (   3->   1)  (   4->   2) 

 ptrans:     0.5000000     0.0000000     0.5000000
 rotmap:
 (   1->   3)  (   2->   4)  (   3->   2)  (   4->   1) 

 ptrans:     0.0000000     0.5000000     0.5000000
 rotmap:
 (   1->   2)  (   2->   1)  (   3->   3)  (   4->   4) 


 irot  :  45
 --------------------------------------------------------------------
 isymop:   0  -1   0
          -1   0   0
           0   0  -1

 gtrans:     0.0000000     0.0000000    -0.0000000

 ptrans:     0.0000000     0.0000000     0.0000000
 rotmap:
 (   1->   1)  (   2->   3)  (   3->   2)  (   4->   4) 

 ptrans:     0.5000000     0.5000000     0.0000000
 rotmap:
 (   1->   4)  (   2->   2)  (   3->   3)  (   4->   1) 

 ptrans:     0.5000000     0.0000000     0.5000000
 rotmap:
 (   1->   3)  (   2->   1)  (   3->   4)  (   4->   2) 

 ptrans:     0.0000000     0.5000000     0.5000000
 rotmap:
 (   1->   2)  (   2->   4)  (   3->   1)  (   4->   3) 


 irot  :  46
 --------------------------------------------------------------------
 isymop:   0   1   0
           1   0   0
           0   0   1

 gtrans:     0.0000000     0.0000000    -0.0000000

 ptrans:     0.0000000     0.0000000     0.0000000
 rotmap:
 (   1->   1)  (   2->   3)  (   3->   2)  (   4->   4) 

 ptrans:     0.5000000     0.5000000     0.0000000
 rotmap:
 (   1->   4)  (   2->   2)  (   3->   3)  (   4->   1) 

 ptrans:     0.5000000     0.0000000     0.5000000
 rotmap:
 (   1->   3)  (   2->   1)  (   3->   4)  (   4->   2) 

 ptrans:     0.0000000     0.5000000     0.5000000
 rotmap:
 (   1->   2)  (   2->   4)  (   3->   1)  (   4->   3) 


 irot  :  47
 --------------------------------------------------------------------
 isymop:   0   0  -1
           0  -1   0
          -1   0   0

 gtrans:     0.0000000     0.0000000    -0.0000000

 ptrans:     0.0000000     0.0000000     0.0000000
 rotmap:
 (   1->   1)  (   2->   4)  (   3->   3)  (   4->   2) 

 ptrans:     0.5000000     0.5000000     0.0000000
 rotmap:
 (   1->   4)  (   2->   1)  (   3->   2)  (   4->   3) 

 ptrans:     0.5000000     0.0000000     0.5000000
 rotmap:
 (   1->   3)  (   2->   2)  (   3->   1)  (   4->   4) 

 ptrans:     0.0000000     0.5000000     0.5000000
 rotmap:
 (   1->   2)  (   2->   3)  (   3->   4)  (   4->   1) 


 irot  :  48
 --------------------------------------------------------------------
 isymop:   0   0   1
           0   1   0
           1   0   0

 gtrans:     0.0000000     0.0000000    -0.0000000

 ptrans:     0.0000000     0.0000000     0.0000000
 rotmap:
 (   1->   1)  (   2->   4)  (   3->   3)  (   4->   2) 

 ptrans:     0.5000000     0.5000000     0.0000000
 rotmap:
 (   1->   4)  (   2->   1)  (   3->   2)  (   4->   3) 

 ptrans:     0.5000000     0.0000000     0.5000000
 rotmap:
 (   1->   3)  (   2->   2)  (   3->   1)  (   4->   4) 

 ptrans:     0.0000000     0.5000000     0.5000000
 rotmap:
 (   1->   2)  (   2->   3)  (   3->   4)  (   4->   1) 


 KPOINTS: pymatgen generated KPOINTS with grid den

Automatic generation of k-mesh.
Space group operators:
 irot       det(A)        alpha          n_x          n_y          n_z        tau_x        tau_y        tau_z
    1     1.000000     0.000001     1.000000     0.000000     0.000000     0.000000     0.000000    -0.000000
    2    -1.000000     0.000001     1.000000     0.000000     0.000000     0.000000     0.000000    -0.000000
    3     1.000000   120.000000    -0.577350    -0.577350    -0.577350     0.000000     0.000000    -0.000000
    4    -1.000000   120.000000    -0.577350    -0.577350    -0.577350     0.000000     0.000000    -0.000000
    5     1.000000   120.000000     0.577350     0.577350     0.577350     0.000000     0.000000    -0.000000
    6    -1.000000   120.000000     0.577350     0.577350     0.577350     0.000000     0.000000    -0.000000
    7     1.000000    90.000000     0.000000     0.000000    -1.000000     0.000000     0.000000    -0.000000
    8    -1.000000    90.000000     0.000000     0.000000    -1.000000     0.000000     0.000000    -0.000000
    9     1.000000   180.000000     0.000000     0.707107     0.707107     0.000000     0.000000    -0.000000
   10    -1.000000   180.000000     0.000000     0.707107     0.707107     0.000000     0.000000    -0.000000
   11     1.000000    90.000000     0.000000     1.000000     0.000000     0.000000     0.000000    -0.000000
   12    -1.000000    90.000000     0.000000     1.000000     0.000000     0.000000     0.000000    -0.000000
   13     1.000000   180.000000     0.000000     0.000000     1.000000     0.000000     0.000000    -0.000000
   14    -1.000000   180.000000     0.000000     0.000000     1.000000     0.000000     0.000000    -0.000000
   15     1.000000   120.000000    -0.577350     0.577350     0.577350     0.000000     0.000000    -0.000000
   16    -1.000000   120.000000    -0.577350     0.577350     0.577350     0.000000     0.000000    -0.000000
   17     1.000000   120.000000    -0.577350     0.577350    -0.577350     0.000000     0.000000    -0.000000
   18    -1.000000   120.000000    -0.577350     0.577350    -0.577350     0.000000     0.000000    -0.000000
   19     1.000000    90.000000     0.000000     0.000000     1.000000     0.000000     0.000000    -0.000000
   20    -1.000000    90.000000     0.000000     0.000000     1.000000     0.000000     0.000000    -0.000000
   21     1.000000    90.000000    -1.000000     0.000000     0.000000     0.000000     0.000000    -0.000000
   22    -1.000000    90.000000    -1.000000     0.000000     0.000000     0.000000     0.000000    -0.000000
   23     1.000000   180.000000     0.707107     0.000000     0.707107     0.000000     0.000000    -0.000000
   24    -1.000000   180.000000     0.707107     0.000000     0.707107     0.000000     0.000000    -0.000000
   25     1.000000   120.000000     0.577350    -0.577350     0.577350     0.000000     0.000000    -0.000000
   26    -1.000000   120.000000     0.577350    -0.577350     0.577350     0.000000     0.000000    -0.000000
   27     1.000000   120.000000    -0.577350    -0.577350     0.577350     0.000000     0.000000    -0.000000
   28    -1.000000   120.000000    -0.577350    -0.577350     0.577350     0.000000     0.000000    -0.000000
   29     1.000000   180.000000     1.000000     0.000000     0.000000     0.000000     0.000000    -0.000000
   30    -1.000000   180.000000     1.000000     0.000000     0.000000     0.000000     0.000000    -0.000000
   31     1.000000    90.000000     0.000000    -1.000000     0.000000     0.000000     0.000000    -0.000000
   32    -1.000000    90.000000     0.000000    -1.000000     0.000000     0.000000     0.000000    -0.000000
   33     1.000000   180.000000     0.707107     0.707107     0.000000     0.000000     0.000000    -0.000000
   34    -1.000000   180.000000     0.707107     0.707107     0.000000     0.000000     0.000000    -0.000000
   35     1.000000    90.000000     1.000000     0.000000     0.000000     0.000000     0.000000    -0.000000
   36    -1.000000    90.000000     1.000000     0.000000     0.000000     0.000000     0.000000    -0.000000
   37     1.000000   120.000000     0.577350    -0.577350    -0.577350     0.000000     0.000000    -0.000000
   38    -1.000000   120.000000     0.577350    -0.577350    -0.577350     0.000000     0.000000    -0.000000
   39     1.000000   180.000000     0.000000     1.000000     0.000000     0.000000     0.000000    -0.000000
   40    -1.000000   180.000000     0.000000     1.000000     0.000000     0.000000     0.000000    -0.000000
   41     1.000000   120.000000     0.577350     0.577350    -0.577350     0.000000     0.000000    -0.000000
   42    -1.000000   120.000000     0.577350     0.577350    -0.577350     0.000000     0.000000    -0.000000
   43     1.000000   180.000000     0.000000    -0.707107     0.707107     0.000000     0.000000    -0.000000
   44    -1.000000   180.000000     0.000000    -0.707107     0.707107     0.000000     0.000000    -0.000000
   45     1.000000   180.000000     0.707107    -0.707107     0.000000     0.000000     0.000000    -0.000000
   46    -1.000000   180.000000     0.707107    -0.707107     0.000000     0.000000     0.000000    -0.000000
   47     1.000000   180.000000     0.707107     0.000000    -0.707107     0.000000     0.000000    -0.000000
   48    -1.000000   180.000000     0.707107     0.000000    -0.707107     0.000000     0.000000    -0.000000
 
 Subroutine IBZKPT returns following result:
 ===========================================
 
 Found     10 irreducible k-points:
 
 Following reciprocal coordinates:
            Coordinates               Weight
  0.083333  0.083333  0.083333      8.000000
  0.250000  0.083333  0.083333     24.000000
  0.416667  0.083333  0.083333     24.000000
  0.250000  0.250000  0.083333     24.000000
  0.416667  0.250000  0.083333     48.000000
  0.416667  0.416667  0.083333     24.000000
  0.250000  0.250000  0.250000      8.000000
  0.416667  0.250000  0.250000     24.000000
  0.416667  0.416667  0.250000     24.000000
  0.416667  0.416667  0.416667      8.000000
 
 Following cartesian coordinates:
            Coordinates               Weight
  0.020633  0.020633  0.020633      8.000000
  0.061898  0.020633  0.020633     24.000000
  0.103163  0.020633  0.020633     24.000000
  0.061898  0.061898  0.020633     24.000000
  0.103163  0.061898  0.020633     48.000000
  0.103163  0.103163  0.020633     24.000000
  0.061898  0.061898  0.061898      8.000000
  0.103163  0.061898  0.061898     24.000000
  0.103163  0.103163  0.061898     24.000000
  0.103163  0.103163  0.103163      8.000000
 
 TETIRR: Found     88 inequivalent tetrahedra from     1296


--------------------------------------------------------------------------------------------------------




 Dimension of arrays:
   k-points           NKPTS =     10   k-points in BZ     NKDIM =     10   number of bands    NBANDS=     10
   number of dos      NEDOS =    301   number of ions     NIONS =      4
   non local maximal  LDIM  =      4   non local SUM 2l+1 LMDIM =      8
   total plane-waves  NPLWV =  27000
   max r-space proj   IRMAX =      1   max aug-charges    IRDMAX=  16147
   dimension x,y,z NGX =    30 NGY =   30 NGZ =   30
   dimension x,y,z NGXF=    60 NGYF=   60 NGZF=   60
   support grid    NGXF=    60 NGYF=   60 NGZF=   60
   ions per type =               4
 NGX,Y,Z   is equivalent  to a cutoff of  12.35, 12.35, 12.35 a.u.
 NGXF,Y,Z  is equivalent  to a cutoff of  24.70, 24.70, 24.70 a.u.


 I would recommend the setting:
   dimension x,y,z NGX =    30 NGY =   30 NGZ =   30
 SYSTEM =  unknown system                          
 POSCAR =  Al4                                     

 Startparameter for this run:
   NWRITE =      3    write-flag & timer
   PREC   = accura    normal or accurate (medium, high low for compatibility)
   ISTART =      1    job   : 0-new  1-cont  2-samecut
   ICHARG =      1    charge: 1-file 2-atom 10-const
   ISPIN  =      1    spin polarized calculation?
   LNONCOLLINEAR =      F non collinear calculations
   LSORBIT =      F    spin-orbit coupling
   INIWAV =      1    electr: 0-lowe 1-rand  2-diag
   LASPH  =      F    aspherical Exc in radial PAW
   METAGGA=      F    non-selfconsistent MetaGGA calc.

 Electronic Relaxation 1
   ENCUT  =  520.0 eV  38.22 Ry    6.18 a.u.   7.51  7.51  7.51*2*pi/ulx,y,z
   ENINI  =  520.0     initial cutoff
   ENAUG  =  291.1 eV  augmentation charge cutoff
   NELM   =    100;   NELMIN=  2; NELMDL=  0     # of ELM steps 
   EDIFF  = 0.2E-03   stopping-criterion for ELM
   LREAL  =      F    real-space projection
   NLSPLINE    = F    spline interpolate recip. space projectors
   LCOMPAT=      F    compatible to vasp.4.4
   GGA_COMPAT  = T    GGA compatible to vasp.4.4-vasp.4.6
   LMAXPAW     = -100 max onsite density
   LMAXMIX     =    2 max onsite mixed and CHGCAR
   VOSKOWN=      0    Vosko Wilk Nusair interpolation
   ROPT   =    0.00000
 Ionic relaxation
   EDIFFG = 0.2E-02   stopping-criterion for IOM
   NSW    =      0    number of steps for IOM
   NBLOCK =      1;   KBLOCK =      1    inner block; outer block 
   IBRION =     -1    ionic relax: 0-MD 1-quasi-New 2-CG
   NFREE  =      0    steps in history (QN), initial steepest desc. (CG)
   ISIF   =      3    stress and relaxation
   IWAVPR =     10    prediction:  0-non 1-charg 2-wave 3-comb
   ISYM   =      2    0-nonsym 1-usesym 2-fastsym
   LCORR  =      T    Harris-Foulkes like correction to forces

   POTIM  = 0.5000    time-step for ionic-motion
   TEIN   =    0.0    initial temperature
   TEBEG  =    0.0;   TEEND  =   0.0 temperature during run
   SMASS  =  -3.00    Nose mass-parameter (am)
   estimated Nose-frequenzy (Omega)   =  0.10E-29 period in steps =****** mass=  -0.373E-27a.u.
   SCALEE = 1.0000    scale energy and forces
   NPACO  =    256;   APACO  = 16.0  distance and # of slots for P.C.
   PSTRESS=    0.0 pullay stress

  Mass of Ions in am
   POMASS =  26.98
  Ionic Valenz
   ZVAL   =   3.00
  Atomic Wigner-Seitz radii
   RWIGS  =  -1.00
  virtual crystal weights 
   VCA    =   1.00
   NELECT =      12.0000    total number of electrons
   NUPDOWN=      -1.0000    fix difference up-down

 DOS related values:
   EMIN   =  10.00;   EMAX   =-10.00  energy-range for DOS
   EFERMI =   0.00
   ISMEAR =    -5;   SIGMA  =   0.05  broadening in eV -4-tet -1-fermi 0-gaus

 Electronic relaxation 2 (details)
   IALGO  =     68    algorithm
   LDIAG  =      T    sub-space diagonalisation (order eigenvalues)
   LSUBROT=      F    optimize rotation matrix (better conditioning)
   TURBO    =      0    0=normal 1=particle mesh
   IRESTART =      0    0=no restart 2=restart with 2 vectors
   NREBOOT  =      0    no. of reboots
   NMIN     =      0    reboot dimension
   EREF     =   0.00    reference energy to select bands
   IMIX   =      4    mixing-type and parameters
     AMIX     =   0.40;   BMIX     =  1.00
     AMIX_MAG =   1.60;   BMIX_MAG =  1.00
     AMIN     =   0.10
     WC   =   100.;   INIMIX=   1;  MIXPRE=   1;  MAXMIX= -45

 Intra band minimization:
   WEIMIN = 0.0000     energy-eigenvalue tresh-hold
   EBREAK =  0.50E-05  absolut break condition
   DEPER  =   0.30     relativ break condition  

   TIME   =   0.40     timestep for ELM

  volume/ion in A,a.u.               =      16.47       111.16
  Fermi-wavevector in a.u.,A,eV,Ry     =   0.927974  1.753616 11.716451  0.861135
  Thomas-Fermi vector in A             =   2.054101

 Write flags
   LWAVE  =      T    write WAVECAR
   LCHARG =      T    write CHGCAR
   LVTOT  =      F    write LOCPOT, total local potential
   LVHAR  =      F    write LOCPOT, Hartree potential only
   LELF   =      F    write electronic localiz. function (ELF)
   LORBIT =     11    0 simple, 1 ext, 2 COOP (PROOUT)


 Dipole corrections
   LMONO  =      F    monopole corrections only (constant potential shift)
   LDIPOL =      F    correct potential (dipole corrections)
   IDIPOL =      0    1-x, 2-y, 3-z, 4-all directions 
   EPSILON=  1.0000000 bulk dielectric constant

 Exchange correlation treatment:
   GGA     =    --    GGA type
   LEXCH   =     8    internal setting for exchange type
   VOSKOWN=      0    Vosko Wilk Nusair interpolation
   LHFCALC =     F    Hartree Fock is set to
   LHFONE  =     F    Hartree Fock one center treatment
   AEXX    =    0.0000 exact exchange contribution

 Linear response parameters
   LEPSILON=     F    determine dielectric tensor
   LRPA    =     F    only Hartree local field effects (RPA)
   LNABLA  =     F    use nabla operator in PAW spheres
   LVEL    =     F    velocity operator in full k-point grid
   LINTERFAST=   F  fast interpolation
   KINTER  =     0    interpolate to denser k-point grid
   CSHIFT  =0.1000    complex shift for real part using Kramers Kronig
   OMEGAMAX=  -1.0    maximum frequency
   DEG_THRESHOLD= 0.2000000E-02 threshold for treating states as degnerate
   RTIME   =    0.100 relaxation time in fs

 Orbital magnetization related:
   ORBITALMAG=     F  switch on orbital magnetization
   LCHIMAG   =     F  perturbation theory with respect to B field
   DQ        =  0.001000  dq finite difference perturbation B field



--------------------------------------------------------------------------------------------------------


 Static calculation
 charge density and potential will be updated during run
 non-spin polarized calculation
 RMM-DIIS sequential band-by-band and
  variant of blocked Davidson during initial phase
 perform sub-space diagonalisation
    before iterative eigenvector-optimisation
 modified Broyden-mixing scheme, WC =      100.0
 initial mixing is a Kerker type mixing with AMIX =  0.4000 and BMIX =      1.0000
 Hartree-type preconditioning will be used
 using additional bands            4
 reciprocal scheme for non local part
 use partial core corrections
 calculate Harris-corrections to forces   (improved forces if not selfconsistent)
 use gradient corrections 
 use of overlap-Matrix (Vanderbilt PP)
 Fermi weights with tetrahedron method with Bloechl corrections


--------------------------------------------------------------------------------------------------------


  energy-cutoff  :      520.00
  volume of cell :       65.89
      direct lattice vectors                 reciprocal lattice vectors
     4.038930000  0.000000000  0.000000000     0.247590327  0.000000000  0.000000000
     0.000000000  4.038930000  0.000000000     0.000000000  0.247590327  0.000000000
     0.000000000  0.000000000  4.038930000     0.000000000  0.000000000  0.247590327

  length of vectors
     4.038930000  4.038930000  4.038930000     0.247590327  0.247590327  0.247590327



 old parameters found on file WAVECAR:
  energy-cutoff  :      520.00
  volume of cell :       65.89
      direct lattice vectors                 reciprocal lattice vectors
     4.038930000  0.000000000  0.000000000     0.247590327  0.000000000  0.000000000
     0.000000000  4.038930000  0.000000000     0.000000000  0.247590327  0.000000000
     0.000000000  0.000000000  4.038930000     0.000000000  0.000000000  0.247590327

  length of vectors


 k-points in units of 2pi/SCALE and weight: pymatgen generated KPOINTS with grid den
   0.02063253  0.02063253  0.02063253       0.037
   0.06189758  0.02063253  0.02063253       0.111
   0.10316264  0.02063253  0.02063253       0.111
   0.06189758  0.06189758  0.02063253       0.111
   0.10316264  0.06189758  0.02063253       0.222
   0.10316264  0.10316264  0.02063253       0.111
   0.06189758  0.06189758  0.06189758       0.037
   0.10316264  0.06189758  0.06189758       0.111
   0.10316264  0.10316264  0.06189758       0.111
   0.10316264  0.10316264  0.10316264       0.037

 k-points in reciprocal lattice and weights: pymatgen generated KPOINTS with grid den
   0.08333333  0.08333333  0.08333333       0.037
   0.25000000  0.08333333  0.08333333       0.111
   0.41666667  0.08333333  0.08333333       0.111
   0.25000000  0.25000000  0.08333333       0.111
   0.41666667  0.25000000  0.08333333       0.222
   0.41666667  0.41666667  0.08333333       0.111
   0.25000000  0.25000000  0.25000000       0.037
   0.41666667  0.25000000  0.25000000       0.111
   0.41666667  0.41666667  0.25000000       0.111
   0.41666667  0.41666667  0.41666667       0.037

 position of ions in fractional coordinates (direct lattice) 
   0.00000000  0.00000000  0.00000000
   0.00000000  0.50000000  0.50000000
   0.50000000  0.00000000  0.50000000
   0.50000000  0.50000000  0.00000000

 position of ions in cartesian coordinates  (Angst):
   0.00000000  0.00000000  0.00000000
   0.00000000  2.01946500  2.01946500
   2.01946500  0.00000000  2.01946500
   2.01946500  2.01946500  0.00000000



--------------------------------------------------------------------------------------------------------


 k-point  1 :   0.0833 0.0833 0.0833  plane waves:    1797
 k-point  2 :   0.2500 0.0833 0.0833  plane waves:    1780
 k-point  3 :   0.4167 0.0833 0.0833  plane waves:    1779
 k-point  4 :   0.2500 0.2500 0.0833  plane waves:    1780
 k-point  5 :   0.4167 0.2500 0.0833  plane waves:    1773
 k-point  6 :   0.4167 0.4167 0.0833  plane waves:    1762
 k-point  7 :   0.2500 0.2500 0.2500  plane waves:    1791
 k-point  8 :   0.4167 0.2500 0.2500  plane waves:    1770
 k-point  9 :   0.4167 0.4167 0.2500  plane waves:    1764
 k-point 10 :   0.4167 0.4167 0.4167  plane waves:    1772

 maximum and minimum number of plane-waves per node :      1797     1762

 maximum number of plane-waves:      1797
 maximum index in each direction: 
   IXMAX=    7   IYMAX=    7   IZMAX=    7
   IXMIN=   -7   IYMIN=   -7   IZMIN=   -7

 NGX is ok and might be reduce to  30
 NGY is ok and might be reduce to  30
 NGZ is ok and might be reduce to  30

 serial   3D FFT for wavefunctions
 parallel 3D FFT for charge:
    minimum data exchange during FFTs selected (reduces bandwidth)


 total amount of memory used by VASP on root node    53491. kBytes
========================================================================

   base      :      30000. kBytes
   nonl-proj :       1265. kBytes
   fftplans  :       7596. kBytes
   grid      :      11692. kBytes
   one-center:         12. kBytes
   wavefun   :       2926. kBytes

     INWAV:  cpu time    0.0071: real time    0.0072
 Broyden mixing: mesh for mixing (old mesh)
   NGX = 15   NGY = 15   NGZ = 15
  (NGX  = 60   NGY  = 60   NGZ  = 60)
  gives a total of   3375 points

 initial charge density was supplied:
 number of electron      12.0000000 magnetization 
 keeping initial charge density in first step


--------------------------------------------------------------------------------------------------------


 Maximum index for augmentation-charges        15515 (set IRDMAX)


--------------------------------------------------------------------------------------------------------


 First call to EWALD:  gamma=   0.439
 Maximum number of real-space cells 3x 3x 3
 Maximum number of reciprocal cells 3x 3x 3

 FEWALD executed in parallel
    FEWALD:  cpu time    0.0011: real time    0.0011


----------------------------------------- Iteration    1(   1)  ---------------------------------------


    POTLOK:  cpu time    0.1496: real time    0.1499
    SETDIJ:  cpu time    0.0102: real time    0.0101
     EDDAV:  cpu time    0.3244: real time    0.3278
 BZINTS: Fermi energy:  7.885802; 12.000000 electrons
         Band energy:  43.079739;  BLOECHL correction: -0.397947
       DOS:  cpu time    0.0012: real time    0.0012
    CHARGE:  cpu time    0.0932: real time    0.0933
    MIXING:  cpu time    0.0035: real time    0.0035
    --------------------------------------------
      LOOP:  cpu time    0.5830: real time    0.5869

 eigenvalue-minimisations  :   126
 total energy-change (2. order) :-0.1497060E+02  (-0.5975935E-05)
 number of electron      12.0000000 magnetization 
 augmentation part       -0.1543371 magnetization 

 Broyden mixing:
  rms(total) = 0.33846E-02    rms(broyden)= 0.33846E-02
  rms(prec ) = 0.33978E-02
  weight for this iteration     100.00

 Free energy of the ion-electron system (eV)
  ---------------------------------------------------
  alpha Z        PSCENC =        -0.81565486
  Ewald energy   TEWEN  =      -294.23107051
  -Hartree energ DENC   =        -0.41998834
  -exchange      EXHF   =         0.00000000
  -V(xc)+E(xc)   XCENC  =      -104.50512718
  PAW double counting   =       570.07912458     -442.31145198
  entropy T*S    EENTRO =         0.00000000
  eigenvalues    EBANDS =        43.07973932
  atomic energy  EATOM  =       214.15382826
  Solvation  Ediel_sol  =         0.00000000
  ---------------------------------------------------
  free energy    TOTEN  =       -14.97060072 eV

  energy without entropy =      -14.97060072  energy(sigma->0) =      -14.97060072


--------------------------------------------------------------------------------------------------------




 average (electrostatic) potential at core
  the test charge radii are     1.0406
  (the norm of the test charge is              1.0000)
       1 -72.6095       2 -72.6095       3 -72.6095       4 -72.6095



 E-fermi :   7.8858     XC(G=0): -10.2030     alpha+bet :-14.9019


 k-point     1 :       0.0833    0.0833    0.0833
  band No.  band energies     occupation 
      1      -2.9394      2.00000
      2       4.3400      2.00000
      3       4.3400      2.00000
      4       4.3400      2.00000
      5       7.5119      2.18181
      6       7.5119      2.09119
      7       7.5119      0.94430
      8      11.3078      0.00000
      9      11.3078      0.00000
     10      11.3078      0.00000

 k-point     2 :       0.2500    0.0833    0.0833
  band No.  band energies     occupation 
      1      -2.4368      2.00000
      2       2.0013      2.00000
      3       4.8128      2.00000
      4       4.8128      2.00000
      5       7.9615      1.56030
      6       7.9615      0.83952
      7       9.0857     -0.05079
      8       9.0857      0.00000
      9      10.7079      0.00000
     10      11.7846      0.00000

 k-point     3 :       0.4167    0.0833    0.0833
  band No.  band energies     occupation 
      1      -1.4369      2.00000
      2       0.0492      2.00000
      3       5.7506      2.00000
      4       5.7506      2.00000
      5       7.1675      2.04031
      6       7.1675      2.10926
      7       8.9249     -0.00151
      8       8.9249      0.00000
      9      10.4885      0.00000
     10      10.4885      0.00000

 k-point     4 :       0.2500    0.2500    0.0833
  band No.  band energies     occupation 
      1      -1.9360      2.00000
      2       2.4863      2.00000
      3       2.4863      2.00000
      4       5.2798      2.00000
      5       6.7744      2.06937
      6       8.5201      0.08421
      7       9.4972     -0.05408
      8       9.4972     -0.00002
      9      11.1863      0.00000
     10      11.1863      0.00000

 k-point     5 :       0.4167    0.2500    0.0833
  band No.  band energies     occupation 
      1      -0.9396      2.00000
      2       0.5414      2.00000
      3       3.4510      2.00000
      4       4.8787      2.00000
      5       6.2466      2.00495
      6       7.6465      1.65471
      7       9.4472     -0.03487
      8      10.4405     -0.00397
      9      10.8010      0.00000
     10      11.8330      0.00000

 k-point     6 :       0.4167    0.4167    0.0833
  band No.  band energies     occupation 
      1       0.0499      2.00000
      2       1.5206      2.00000
      3       1.5206      2.00000
      4       2.9756      2.00000
      5       7.1808      2.00000
      6       8.5850      0.33360
      7       8.5850      0.14754
      8       9.9849     -0.04427
      9      10.3920      0.00000
     10      11.7741      0.00000

 k-point     7 :       0.2500    0.2500    0.2500
  band No.  band energies     occupation 
      1      -1.4369      2.00000
      2       2.9694      2.00000
      3       2.9694      2.00000
      4       2.9694      2.00000
      5       7.2615      2.00005
      6       7.2615      1.96790
      7       7.2615      0.93606
      8      11.4606     -0.03442
      9      11.6796      0.00000
     10      11.6796      0.00000

 k-point     8 :       0.4167    0.2500    0.2500
  band No.  band energies     occupation 
      1      -0.4439      2.00000
      2       1.0319      2.00000
      3       3.9260      2.00000
      4       3.9260      2.00000
      5       5.3850      2.00037
      6       5.3850      2.19224
      7       8.2064      0.60100
      8       9.6121     -0.05717
      9      12.5733      0.00000
     10      12.5733      0.00000

 k-point     9 :       0.4167    0.4167    0.2500
  band No.  band energies     occupation 
      1       0.5422      2.00000
      2       2.0077      2.00000
      3       2.0077      2.00000
      4       3.4536      2.00000
      5       4.9087      2.00000
      6       6.3299      2.07861
      7       6.3299      2.08264
      8       7.7472      0.75881
      9      13.5109      0.00000
     10      14.8189      0.00000

 k-point    10 :       0.4167    0.4167    0.4167
  band No.  band energies     occupation 
      1       1.5217      2.00000
      2       2.9737      2.00000
      3       2.9737      2.00000
      4       2.9737      2.00000
      5       4.4366      2.00000
      6       4.4366      2.00000
      7       4.4366      2.03818
      8       5.8642      2.08019
      9      17.0283      0.00000
     10      17.0284      0.00000


--------------------------------------------------------------------------------------------------------


 soft charge-density along one line, spin component           1
         0         1         2         3         4         5         6         7         8         9
 total charge-density along one line

 pseudopotential strength for first ion, spin component:           1
  8.443  14.390  -0.000  -0.000  -0.000  -0.000  -0.000  -0.000
 14.390  24.525  -0.000  -0.000  -0.000  -0.000  -0.000  -0.000
 -0.000  -0.000   1.988  -0.000  -0.000   5.731  -0.000  -0.000
 -0.000  -0.000  -0.000   1.988   0.000  -0.000   5.731   0.000
 -0.000  -0.000  -0.000   0.000   1.988  -0.000   0.000   5.731
 -0.000  -0.000   5.731  -0.000  -0.000  16.436  -0.000  -0.000
 -0.000  -0.000  -0.000   5.731   0.000  -0.000  16.436   0.000
 -0.000  -0.000  -0.000   0.000   5.731  -0.000   0.000  16.436
 total augmentation occupancy for first ion, spin component:           1
  3.367  -0.831  -0.000   0.000   0.000   0.000  -0.000   0.000
 -0.831   0.273  -0.000  -0.000   0.000  -0.000   0.000  -0.000
  0.000   0.000   1.105   0.000   0.000  -0.071  -0.000   0.000
  0.000   0.000   0.000   1.105  -0.000   0.000  -0.071   0.000
  0.000   0.000   0.000   0.000   1.105  -0.000  -0.000  -0.071
  0.000   0.000  -0.071  -0.000  -0.000   0.005  -0.000  -0.000
 -0.000  -0.000  -0.000  -0.071   0.000  -0.000   0.005  -0.000
  0.000   0.000  -0.000  -0.000  -0.071  -0.000  -0.000   0.005


----------------------------------------- Iteration    1(   2)  ---------------------------------------


    POTLOK:  cpu time    0.1531: real time    0.1534
    SETDIJ:  cpu time    0.0113: real time    0.0113
    EDDIAG:  cpu time    0.1034: real time    0.1036
  RMM-DIIS:  cpu time    0.1692: real time    0.1693
    ORTHCH:  cpu time    0.0066: real time    0.0066
 BZINTS: Fermi energy:  7.885797; 12.000000 electrons
         Band energy:  43.079662;  BLOECHL correction: -0.397947
       DOS:  cpu time    0.0015: real time    0.0015
    --------------------------------------------
      LOOP:  cpu time    0.4560: real time    0.4567

 eigenvalue-minimisations  :    31
 total energy-change (2. order) : 0.1088742E-05  ( 0.1502953E-07)
 number of electron      12.0000000 magnetization 
 augmentation part       -0.1543371 magnetization 

 Free energy of the ion-electron system (eV)
  ---------------------------------------------------
  alpha Z        PSCENC =        -0.81565486
  Ewald energy   TEWEN  =      -294.23107051
  -Hartree energ DENC   =        -0.41990850
  -exchange      EXHF   =         0.00000000
  -V(xc)+E(xc)   XCENC  =      -104.50535207
  PAW double counting   =       567.74490294     -439.97700687
  entropy T*S    EENTRO =         0.00000000
  eigenvalues    EBANDS =        43.07966199
  atomic energy  EATOM  =       214.15382826
  Solvation  Ediel_sol  =         0.00000000
  ---------------------------------------------------
  free energy    TOTEN  =       -14.97059963 eV

  energy without entropy =      -14.97059963  energy(sigma->0) =      -14.97059963


--------------------------------------------------------------------------------------------------------




 average (electrostatic) potential at core
  the test charge radii are     1.0406
  (the norm of the test charge is              1.0000)
       1 -72.6094       2 -72.6094       3 -72.6094       4 -72.6094



 E-fermi :   7.8858     XC(G=0): -10.2030     alpha+bet :-14.9019


 k-point     1 :       0.0833    0.0833    0.0833
  band No.  band energies     occupation 
      1      -2.9394      2.00000
      2       4.3400      2.00000
      3       4.3400      2.00000
      4       4.3400      2.00000
      5       7.5119      2.18181
      6       7.5119      2.09119
      7       7.5119      0.94430
      8      11.3078      0.00000
      9      11.3078      0.00000
     10      11.3078      0.00000

 k-point     2 :       0.2500    0.0833    0.0833
  band No.  band energies     occupation 
      1      -2.4368      2.00000
      2       2.0013      2.00000
      3       4.8128      2.00000
      4       4.8128      2.00000
      5       7.9615      1.56030
      6       7.9615      0.83952
      7       9.0857     -0.05079
      8       9.0857      0.00000
      9      10.7079      0.00000
     10      11.7846      0.00000

 k-point     3 :       0.4167    0.0833    0.0833
  band No.  band energies     occupation 
      1      -1.4369      2.00000
      2       0.0492      2.00000
      3       5.7506      2.00000
      4       5.7506      2.00000
      5       7.1675      2.04031
      6       7.1675      2.10926
      7       8.9249     -0.00151
      8       8.9249      0.00000
      9      10.4885      0.00000
     10      10.4885      0.00000

 k-point     4 :       0.2500    0.2500    0.0833
  band No.  band energies     occupation 
      1      -1.9360      2.00000
      2       2.4863      2.00000
      3       2.4863      2.00000
      4       5.2798      2.00000
      5       6.7744      2.06937
      6       8.5201      0.08421
      7       9.4972     -0.05408
      8       9.4972     -0.00002
      9      11.1862      0.00000
     10      11.1862      0.00000

 k-point     5 :       0.4167    0.2500    0.0833
  band No.  band energies     occupation 
      1      -0.9396      2.00000
      2       0.5414      2.00000
      3       3.4509      2.00000
      4       4.8787      2.00000
      5       6.2466      2.00495
      6       7.6465      1.65471
      7       9.4472     -0.03487
      8      10.4405     -0.00397
      9      10.8010      0.00000
     10      11.8330      0.00000

 k-point     6 :       0.4167    0.4167    0.0833
  band No.  band energies     occupation 
      1       0.0499      2.00000
      2       1.5206      2.00000
      3       1.5206      2.00000
      4       2.9756      2.00000
      5       7.1808      2.00000
      6       8.5850      0.33360
      7       8.5850      0.14754
      8       9.9848     -0.04427
      9      10.3920      0.00000
     10      11.7741      0.00000

 k-point     7 :       0.2500    0.2500    0.2500
  band No.  band energies     occupation 
      1      -1.4369      2.00000
      2       2.9694      2.00000
      3       2.9694      2.00000
      4       2.9694      2.00000
      5       7.2615      2.00005
      6       7.2615      1.96790
      7       7.2615      0.93606
      8      11.4606     -0.03442
      9      11.6796      0.00000
     10      11.6796      0.00000

 k-point     8 :       0.4167    0.2500    0.2500
  band No.  band energies     occupation 
      1      -0.4440      2.00000
      2       1.0319      2.00000
      3       3.9260      2.00000
      4       3.9260      2.00000
      5       5.3850      2.00037
      6       5.3850      2.19224
      7       8.2064      0.60100
      8       9.6121     -0.05717
      9      12.5733      0.00000
     10      12.5733      0.00000

 k-point     9 :       0.4167    0.4167    0.2500
  band No.  band energies     occupation 
      1       0.5422      2.00000
      2       2.0077      2.00000
      3       2.0077      2.00000
      4       3.4536      2.00000
      5       4.9087      2.00000
      6       6.3299      2.07861
      7       6.3299      2.08264
      8       7.7472      0.75881
      9      13.5109      0.00000
     10      14.8189      0.00000

 k-point    10 :       0.4167    0.4167    0.4167
  band No.  band energies     occupation 
      1       1.5216      2.00000
      2       2.9737      2.00000
      3       2.9737      2.00000
      4       2.9737      2.00000
      5       4.4366      2.00000
      6       4.4366      2.00000
      7       4.4366      2.03818
      8       5.8642      2.08019
      9      17.0283      0.00000
     10      17.0284      0.00000


--------------------------------------------------------------------------------------------------------


 soft charge-density along one line, spin component           1
         0         1         2         3         4         5         6         7         8         9
 total charge-density along one line

 pseudopotential strength for first ion, spin component:           1
  8.443  14.390   0.000  -0.000   0.000   0.000  -0.000   0.000
 14.390  24.525   0.000  -0.000   0.000   0.000  -0.000   0.000
  0.000   0.000   1.988  -0.000   0.000   5.731  -0.000   0.000
 -0.000  -0.000  -0.000   1.988  -0.000  -0.000   5.731  -0.000
  0.000   0.000   0.000  -0.000   1.988   0.000  -0.000   5.731
  0.000   0.000   5.731  -0.000   0.000  16.436  -0.000   0.000
 -0.000  -0.000  -0.000   5.731  -0.000  -0.000  16.436  -0.000
  0.000   0.000   0.000  -0.000   5.731   0.000  -0.000  16.436
 total augmentation occupancy for first ion, spin component:           1
  3.367  -0.831  -0.000   0.000   0.000   0.000  -0.000   0.000
 -0.831   0.273  -0.000  -0.000   0.000  -0.000   0.000  -0.000
  0.000   0.000   1.105   0.000   0.000  -0.071  -0.000   0.000
  0.000   0.000   0.000   1.105  -0.000   0.000  -0.071   0.000
  0.000   0.000   0.000   0.000   1.105  -0.000  -0.000  -0.071
  0.000   0.000  -0.071  -0.000  -0.000   0.005  -0.000  -0.000
 -0.000  -0.000  -0.000  -0.071   0.000  -0.000   0.005  -0.000
  0.000   0.000  -0.000  -0.000  -0.071  -0.000  -0.000   0.005


------------------------ aborting loop because EDIFF is reached ----------------------------------------





 total charge     

# of ion     s       p       d       tot
----------------------------------------
  1        0.427   0.340   0.000   0.767
  2        0.431   0.341   0.000   0.772
  3        0.428   0.339   0.000   0.767
  4        0.425   0.339   0.000   0.764
------------------------------------------------
tot        1.711   1.359   0.000   3.070

    CHARGE:  cpu time    0.0899: real time    0.0900
    FORLOC:  cpu time    0.0085: real time    0.0085
    FORNL :  cpu time    0.1294: real time    0.1295
    STRESS:  cpu time    0.3776: real time    0.3780
    FORCOR:  cpu time    0.1552: real time    0.1553
    FORHAR:  cpu time    0.0443: real time    0.0444
    MIXING:  cpu time    0.0040: real time    0.0039
    OFIELD:  cpu time    0.0000: real time    0.0000

  FORCE on cell =-STRESS in cart. coord.  units (eV):
  Direction    XX          YY          ZZ          XY          YZ          ZX
  --------------------------------------------------------------------------------------
  Alpha Z    -0.81565    -0.81565    -0.81565
  Ewald     -98.07707   -98.07707   -98.07707    -0.00000    -0.00000    -0.00000
  Hartree     0.13993     0.13993     0.13993    -0.00000    -0.00000    -0.00000
  E(xc)     -34.26941   -34.26941   -34.26941     0.00000     0.00000     0.00000
  Local       1.44253     1.44253     1.44253     0.00000     0.00000    -0.00000
  n-local    74.19740    75.22279    77.22532     0.33893     1.27098     0.64056
  augment    -4.11670    -4.11670    -4.11670    -0.00000     0.00000     0.00000
  Kinetic    58.18693    60.15455    62.06257     1.49551   -10.00495    -2.59990
  Fock        0.00000     0.00000     0.00000     0.00000     0.00000     0.00000
  -------------------------------------------------------------------------------------
  Total      -0.01319    -0.01319    -0.01319    -0.00000    -0.00000     0.00000
  in kB      -0.32079    -0.32079    -0.32079    -0.00000    -0.00000     0.00000
  external pressure =       -0.32 kB  Pullay stress =        0.00 kB


 VOLUME and BASIS-vectors are now :
 -----------------------------------------------------------------------------
  energy-cutoff  :      520.00
  volume of cell :       65.89
      direct lattice vectors                 reciprocal lattice vectors
     4.038930000  0.000000000  0.000000000     0.247590327  0.000000000  0.000000000
     0.000000000  4.038930000  0.000000000     0.000000000  0.247590327  0.000000000
     0.000000000  0.000000000  4.038930000     0.000000000  0.000000000  0.247590327

  length of vectors
     4.038930000  4.038930000  4.038930000     0.247590327  0.247590327  0.247590327


 FORCES acting on ions
    electron-ion (+dipol)            ewald-force                    non-local-force                 convergence-correction
 -----------------------------------------------------------------------------------------------
   -.253E-14 0.742E-15 0.186E-14   0.104E-14 0.453E-15 -.110E-14   0.108E-18 -.271E-19 0.000E+00   0.238E-15 -.612E-17 0.490E-16
   -.290E-14 -.293E-14 -.401E-14   0.101E-14 -.336E-15 0.317E-15   -.149E-18 0.542E-19 -.542E-19   0.224E-15 -.160E-17 -.482E-16
   -.246E-14 0.104E-14 0.219E-13   -.918E-15 0.291E-15 0.311E-15   -.217E-18 -.271E-19 0.542E-19   -.260E-15 0.133E-16 -.453E-16
   -.321E-14 -.760E-14 -.159E-13   -.957E-15 -.498E-15 0.382E-15   -.108E-18 0.000E+00 0.000E+00   -.245E-15 -.236E-16 0.504E-16
 -----------------------------------------------------------------------------------------------
   -.111E-13 -.874E-14 0.388E-14   0.175E-15 -.898E-16 -.861E-16   -.366E-18 0.000E+00 0.000E+00   -.441E-16 -.180E-16 0.584E-17


 POSITION                                       TOTAL-FORCE (eV/Angst)
 -----------------------------------------------------------------------------------
      0.00000      0.00000      0.00000         0.000000     -0.000000     -0.000000
      0.00000      2.01946      2.01946        -0.000000      0.000000     -0.000000
      2.01946      0.00000      2.01946        -0.000000     -0.000000      0.000000
      2.01946      2.01946      0.00000        -0.000000      0.000000      0.000000
 -----------------------------------------------------------------------------------
    total drift:                               -0.000000     -0.000000      0.000000


--------------------------------------------------------------------------------------------------------



  FREE ENERGIE OF THE ION-ELECTRON SYSTEM (eV)
  ---------------------------------------------------
  free  energy   TOTEN  =       -14.97059963 eV

  energy  without entropy=      -14.97059963  energy(sigma->0) =      -14.97059963



--------------------------------------------------------------------------------------------------------


    POTLOK:  cpu time    0.1732: real time    0.1739


--------------------------------------------------------------------------------------------------------


 writing wavefunctions
     LOOP+:  cpu time    2.2268: real time    2.2333
    4ORBIT:  cpu time    0.0000: real time    0.0004



 total charge     

# of ion     s       p       d       tot
----------------------------------------
  1        0.427   0.340   0.000   0.767
  2        0.431   0.341   0.000   0.772
  3        0.428   0.339   0.000   0.767
  4        0.425   0.339   0.000   0.764
------------------------------------------------
tot        1.711   1.359   0.000   3.070

 BZINTS: Fermi energy:  7.885797; 12.000000 electrons
         Band energy:  43.079662;  BLOECHL correction: -0.397947

 total amount of memory used by VASP on root node    53491. kBytes
========================================================================

   base      :      30000. kBytes
   nonl-proj :       1265. kBytes
   fftplans  :       7596. kBytes
   grid      :      11692. kBytes
   one-center:         12. kBytes
   wavefun   :       2926. kBytes

  
  
 General timing and accounting informations for this job:
 ========================================================
  
                  Total CPU time used (sec):        3.974
                            User time (sec):        3.915
                          System time (sec):        0.060
                         Elapsed time (sec):        4.045
  
                   Maximum memory used (kb):       48792.
                   Average memory used (kb):           0.
  
                          Minor page faults:        25790
                          Major page faults:          160
                 Voluntary context switches:          269
