 vasp.5.4.1 24Jun15 (build Mar  6 2017 20:45:23) complex                         
 executed on           IFC91_ompi date 2017.11.01  19:13:09
 running on    1 total cores
 distrk:  each k-point on    1 cores,    1 groups
 distr:  one band on NCORES_PER_BAND=   1 cores,    1 groups


--------------------------------------------------------------------------------------------------------


 INCAR:
 POTCAR:    PAW_PBE Si 05Jan2001                  
 POTCAR:    PAW_PBE Si 05Jan2001                  
   VRHFIN =Si: s2p2                                                             
   LEXCH  = PE                                                                  
   EATOM  =   103.0669 eV,    7.5752 Ry                                         
                                                                                
   TITEL  = PAW_PBE Si 05Jan2001                                                
   LULTRA =        F    use ultrasoft PP ?                                      
   IUNSCR =        1    unscreen: 0-lin 1-nonlin 2-no                           
   RPACOR =    1.500    partial core radius                                     
   POMASS =   28.085; ZVAL   =    4.000    mass and valenz                      
   RCORE  =    1.900    outmost cutoff radius                                   
   RWIGS  =    2.480; RWIGS  =    1.312    wigner-seitz radius (au A)           
   ENMAX  =  245.345; ENMIN  =  184.009 eV                                      
   ICORE  =        2    local potential                                         
   LCOR   =        T    correct aug charges                                     
   LPAW   =        T    paw PP                                                  
   EAUG   =  322.069                                                            
   DEXC   =    0.000                                                            
   RMAX   =    1.950    core radius for proj-oper                               
   RAUG   =    1.300    factor for augmentation sphere                          
   RDEP   =    1.993    radius for radial grids                                 
   RDEPT  =    1.837    core radius for aug-charge                              
                                                                                
   Atomic configuration                                                         
    6 entries                                                                   
     n  l   j            E        occ.                                          
     1  0  0.50     -1785.8828   2.0000                                         
     2  0  0.50      -139.4969   2.0000                                         
     2  1  1.50       -95.5546   6.0000                                         
     3  0  0.50       -10.8127   2.0000                                         
     3  1  0.50        -4.0811   2.0000                                         
     3  2  1.50        -4.0817   0.0000                                         
   Description                                                                  
     l       E           TYP  RCUT    TYP  RCUT                                 
     0    -10.8127223     23  1.900                                             
     0     -7.6451159     23  1.900                                             
     1     -4.0811372     23  1.900                                             
     1      2.4879257     23  1.900                                             
     2     -4.0817478      7  1.900                                             
  local pseudopotential read in
  partial core-charges read in
  partial kinetic energy density read in
  atomic valenz-charges read in
  non local Contribution for L=           0  read in
    real space projection operators read in
  non local Contribution for L=           0  read in
    real space projection operators read in
  non local Contribution for L=           1  read in
    real space projection operators read in
  non local Contribution for L=           1  read in
    real space projection operators read in
    PAW grid and wavefunctions read in

   number of l-projection  operators is LMAX  =           4
   number of lm-projection operators is LMMAX =           8

  PAW_PBE Si 05Jan2001                  :
 energy of atom  1       EATOM= -103.0669
 kinetic energy error for atom=    0.0012 (will be added to EATOM!!)


 POSCAR: Si2                                     
  positions in cartesian coordinates
  No initial velocities read in
 exchange correlation table for  LEXCH =        8
   RHO(1)=    0.500       N(1)  =     2000
   RHO(2)=  100.500       N(2)  =     4000



--------------------------------------------------------------------------------------------------------


 ion  position               nearest neighbor table
   1  0.000  0.000  0.000-   2 2.35   2 2.35   2 2.35   2 2.35
   2  0.250  0.250  0.250-   1 2.35   1 2.35   1 2.35   1 2.35

  LATTYP: Found a face centered cubic cell.
 ALAT       =     5.4300000000
  
  Lattice vectors:
  
 A1 = (   2.7150000000,   2.7150000000,   0.0000000000)
 A2 = (   0.0000000000,   2.7150000000,   2.7150000000)
 A3 = (   2.7150000000,   0.0000000000,   2.7150000000)


Analysis of symmetry for initial positions (statically):
=====================================================================
 Subroutine PRICEL returns:
 Original cell was already a primitive cell.
 

 Routine SETGRP: Setting up the symmetry group for a 
 face centered cubic supercell.


 Subroutine GETGRP returns: Found 48 space group operations
 (whereof 24 operations were pure point group operations)
 out of a pool of 48 trial point group operations.


The static configuration has the point symmetry T_d .
 The point group associated with its full space group is O_h .


Analysis of symmetry for dynamics (positions and initial velocities):
=====================================================================
 Subroutine PRICEL returns:
 Original cell was already a primitive cell.
 

 Routine SETGRP: Setting up the symmetry group for a 
 face centered cubic supercell.


 Subroutine GETGRP returns: Found 48 space group operations
 (whereof 24 operations were pure point group operations)
 out of a pool of 48 trial point group operations.


The dynamic configuration has the point symmetry T_d .
 The point group associated with its full space group is O_h .


 irot  :   1
 --------------------------------------------------------------------
 isymop:   1   0   0
           0   1   0
           0   0   1

 gtrans:     0.0000000     0.0000000     0.0000000

 ptrans:     0.0000000     0.0000000     0.0000000
 rotmap:
 (   1->   1)  (   2->   2) 


 irot  :   2
 --------------------------------------------------------------------
 isymop:   0   0   1
           1   0   0
           0   1   0

 gtrans:     0.0000000     0.0000000     0.0000000

 ptrans:     0.0000000     0.0000000     0.0000000
 rotmap:
 (   1->   1)  (   2->   2) 


 irot  :   3
 --------------------------------------------------------------------
 isymop:   0   1   0
           0   0   1
           1   0   0

 gtrans:     0.0000000     0.0000000     0.0000000

 ptrans:     0.0000000     0.0000000     0.0000000
 rotmap:
 (   1->   1)  (   2->   2) 


 irot  :   4
 --------------------------------------------------------------------
 isymop:  -1  -1  -1
           0   0   1
           1   0   0

 gtrans:     0.0000000     0.0000000     0.0000000

 ptrans:     0.0000000     0.0000000     0.0000000
 rotmap:
 (   1->   1)  (   2->   2) 


 irot  :   5
 --------------------------------------------------------------------
 isymop:  -1  -1  -1
           0   1   0
           0   0   1

 gtrans:     0.0000000     0.0000000     0.0000000

 ptrans:     0.0000000     0.0000000     0.0000000
 rotmap:
 (   1->   1)  (   2->   2) 


 irot  :   6
 --------------------------------------------------------------------
 isymop:  -1  -1  -1
           1   0   0
           0   1   0

 gtrans:     0.0000000     0.0000000     0.0000000

 ptrans:     0.0000000     0.0000000     0.0000000
 rotmap:
 (   1->   1)  (   2->   2) 


 irot  :   7
 --------------------------------------------------------------------
 isymop:   0   1   0
           1   0   0
          -1  -1  -1

 gtrans:     0.0000000     0.0000000     0.0000000

 ptrans:     0.0000000     0.0000000     0.0000000
 rotmap:
 (   1->   1)  (   2->   2) 


 irot  :   8
 --------------------------------------------------------------------
 isymop:   1   0   0
           0   0   1
          -1  -1  -1

 gtrans:     0.0000000     0.0000000     0.0000000

 ptrans:     0.0000000     0.0000000     0.0000000
 rotmap:
 (   1->   1)  (   2->   2) 


 irot  :   9
 --------------------------------------------------------------------
 isymop:   0   0   1
           0   1   0
          -1  -1  -1

 gtrans:     0.0000000     0.0000000     0.0000000

 ptrans:     0.0000000     0.0000000     0.0000000
 rotmap:
 (   1->   1)  (   2->   2) 


 irot  :  10
 --------------------------------------------------------------------
 isymop:   0   0   1
          -1  -1  -1
           0   1   0

 gtrans:     0.0000000     0.0000000     0.0000000

 ptrans:     0.0000000     0.0000000     0.0000000
 rotmap:
 (   1->   1)  (   2->   2) 


 irot  :  11
 --------------------------------------------------------------------
 isymop:   0   1   0
          -1  -1  -1
           1   0   0

 gtrans:     0.0000000     0.0000000     0.0000000

 ptrans:     0.0000000     0.0000000     0.0000000
 rotmap:
 (   1->   1)  (   2->   2) 


 irot  :  12
 --------------------------------------------------------------------
 isymop:   1   0   0
          -1  -1  -1
           0   0   1

 gtrans:     0.0000000     0.0000000     0.0000000

 ptrans:     0.0000000     0.0000000     0.0000000
 rotmap:
 (   1->   1)  (   2->   2) 


 irot  :  13
 --------------------------------------------------------------------
 isymop:  -1  -1  -1
           0   1   0
           1   0   0

 gtrans:     0.0000000     0.0000000     0.0000000

 ptrans:     0.0000000     0.0000000     0.0000000
 rotmap:
 (   1->   1)  (   2->   2) 


 irot  :  14
 --------------------------------------------------------------------
 isymop:  -1  -1  -1
           1   0   0
           0   0   1

 gtrans:     0.0000000     0.0000000     0.0000000

 ptrans:     0.0000000     0.0000000     0.0000000
 rotmap:
 (   1->   1)  (   2->   2) 


 irot  :  15
 --------------------------------------------------------------------
 isymop:  -1  -1  -1
           0   0   1
           0   1   0

 gtrans:     0.0000000     0.0000000     0.0000000

 ptrans:     0.0000000     0.0000000     0.0000000
 rotmap:
 (   1->   1)  (   2->   2) 


 irot  :  16
 --------------------------------------------------------------------
 isymop:   0   1   0
           0   0   1
          -1  -1  -1

 gtrans:     0.0000000     0.0000000     0.0000000

 ptrans:     0.0000000     0.0000000     0.0000000
 rotmap:
 (   1->   1)  (   2->   2) 


 irot  :  17
 --------------------------------------------------------------------
 isymop:   1   0   0
           0   1   0
          -1  -1  -1

 gtrans:     0.0000000     0.0000000     0.0000000

 ptrans:     0.0000000     0.0000000     0.0000000
 rotmap:
 (   1->   1)  (   2->   2) 


 irot  :  18
 --------------------------------------------------------------------
 isymop:   0   0   1
           1   0   0
          -1  -1  -1

 gtrans:     0.0000000     0.0000000     0.0000000

 ptrans:     0.0000000     0.0000000     0.0000000
 rotmap:
 (   1->   1)  (   2->   2) 


 irot  :  19
 --------------------------------------------------------------------
 isymop:   1   0   0
          -1  -1  -1
           0   1   0

 gtrans:     0.0000000     0.0000000     0.0000000

 ptrans:     0.0000000     0.0000000     0.0000000
 rotmap:
 (   1->   1)  (   2->   2) 


 irot  :  20
 --------------------------------------------------------------------
 isymop:   0   0   1
          -1  -1  -1
           1   0   0

 gtrans:     0.0000000     0.0000000     0.0000000

 ptrans:     0.0000000     0.0000000     0.0000000
 rotmap:
 (   1->   1)  (   2->   2) 


 irot  :  21
 --------------------------------------------------------------------
 isymop:   0   1   0
          -1  -1  -1
           0   0   1

 gtrans:     0.0000000     0.0000000     0.0000000

 ptrans:     0.0000000     0.0000000     0.0000000
 rotmap:
 (   1->   1)  (   2->   2) 


 irot  :  22
 --------------------------------------------------------------------
 isymop:   1   0   0
           0   0   1
           0   1   0

 gtrans:     0.0000000     0.0000000     0.0000000

 ptrans:     0.0000000     0.0000000     0.0000000
 rotmap:
 (   1->   1)  (   2->   2) 


 irot  :  23
 --------------------------------------------------------------------
 isymop:   0   1   0
           1   0   0
           0   0   1

 gtrans:     0.0000000     0.0000000     0.0000000

 ptrans:     0.0000000     0.0000000     0.0000000
 rotmap:
 (   1->   1)  (   2->   2) 


 irot  :  24
 --------------------------------------------------------------------
 isymop:   0   0   1
           0   1   0
           1   0   0

 gtrans:     0.0000000     0.0000000     0.0000000

 ptrans:     0.0000000     0.0000000     0.0000000
 rotmap:
 (   1->   1)  (   2->   2) 


 irot  :  25
 --------------------------------------------------------------------
 isymop:  -1   0   0
           0  -1   0
           0   0  -1

 gtrans:     0.2500000     0.2500000     0.2500000

 ptrans:     0.0000000     0.0000000     0.0000000
 rotmap:
 (   1->   2)  (   2->   1) 


 irot  :  26
 --------------------------------------------------------------------
 isymop:   0   0  -1
          -1   0   0
           0  -1   0

 gtrans:     0.2500000     0.2500000     0.2500000

 ptrans:     0.0000000     0.0000000     0.0000000
 rotmap:
 (   1->   2)  (   2->   1) 


 irot  :  27
 --------------------------------------------------------------------
 isymop:   0  -1   0
           0   0  -1
          -1   0   0

 gtrans:     0.2500000     0.2500000     0.2500000

 ptrans:     0.0000000     0.0000000     0.0000000
 rotmap:
 (   1->   2)  (   2->   1) 


 irot  :  28
 --------------------------------------------------------------------
 isymop:   1   1   1
           0   0  -1
          -1   0   0

 gtrans:     0.2500000     0.2500000     0.2500000

 ptrans:     0.0000000     0.0000000     0.0000000
 rotmap:
 (   1->   2)  (   2->   1) 


 irot  :  29
 --------------------------------------------------------------------
 isymop:   1   1   1
           0  -1   0
           0   0  -1

 gtrans:     0.2500000     0.2500000     0.2500000

 ptrans:     0.0000000     0.0000000     0.0000000
 rotmap:
 (   1->   2)  (   2->   1) 


 irot  :  30
 --------------------------------------------------------------------
 isymop:   1   1   1
          -1   0   0
           0  -1   0

 gtrans:     0.2500000     0.2500000     0.2500000

 ptrans:     0.0000000     0.0000000     0.0000000
 rotmap:
 (   1->   2)  (   2->   1) 


 irot  :  31
 --------------------------------------------------------------------
 isymop:   0  -1   0
          -1   0   0
           1   1   1

 gtrans:     0.2500000     0.2500000     0.2500000

 ptrans:     0.0000000     0.0000000     0.0000000
 rotmap:
 (   1->   2)  (   2->   1) 


 irot  :  32
 --------------------------------------------------------------------
 isymop:  -1   0   0
           0   0  -1
           1   1   1

 gtrans:     0.2500000     0.2500000     0.2500000

 ptrans:     0.0000000     0.0000000     0.0000000
 rotmap:
 (   1->   2)  (   2->   1) 


 irot  :  33
 --------------------------------------------------------------------
 isymop:   0   0  -1
           0  -1   0
           1   1   1

 gtrans:     0.2500000     0.2500000     0.2500000

 ptrans:     0.0000000     0.0000000     0.0000000
 rotmap:
 (   1->   2)  (   2->   1) 


 irot  :  34
 --------------------------------------------------------------------
 isymop:   0   0  -1
           1   1   1
           0  -1   0

 gtrans:     0.2500000     0.2500000     0.2500000

 ptrans:     0.0000000     0.0000000     0.0000000
 rotmap:
 (   1->   2)  (   2->   1) 


 irot  :  35
 --------------------------------------------------------------------
 isymop:   0  -1   0
           1   1   1
          -1   0   0

 gtrans:     0.2500000     0.2500000     0.2500000

 ptrans:     0.0000000     0.0000000     0.0000000
 rotmap:
 (   1->   2)  (   2->   1) 


 irot  :  36
 --------------------------------------------------------------------
 isymop:  -1   0   0
           1   1   1
           0   0  -1

 gtrans:     0.2500000     0.2500000     0.2500000

 ptrans:     0.0000000     0.0000000     0.0000000
 rotmap:
 (   1->   2)  (   2->   1) 


 irot  :  37
 --------------------------------------------------------------------
 isymop:   1   1   1
           0  -1   0
          -1   0   0

 gtrans:     0.2500000     0.2500000     0.2500000

 ptrans:     0.0000000     0.0000000     0.0000000
 rotmap:
 (   1->   2)  (   2->   1) 


 irot  :  38
 --------------------------------------------------------------------
 isymop:   1   1   1
          -1   0   0
           0   0  -1

 gtrans:     0.2500000     0.2500000     0.2500000

 ptrans:     0.0000000     0.0000000     0.0000000
 rotmap:
 (   1->   2)  (   2->   1) 


 irot  :  39
 --------------------------------------------------------------------
 isymop:   1   1   1
           0   0  -1
           0  -1   0

 gtrans:     0.2500000     0.2500000     0.2500000

 ptrans:     0.0000000     0.0000000     0.0000000
 rotmap:
 (   1->   2)  (   2->   1) 


 irot  :  40
 --------------------------------------------------------------------
 isymop:   0  -1   0
           0   0  -1
           1   1   1

 gtrans:     0.2500000     0.2500000     0.2500000

 ptrans:     0.0000000     0.0000000     0.0000000
 rotmap:
 (   1->   2)  (   2->   1) 


 irot  :  41
 --------------------------------------------------------------------
 isymop:  -1   0   0
           0  -1   0
           1   1   1

 gtrans:     0.2500000     0.2500000     0.2500000

 ptrans:     0.0000000     0.0000000     0.0000000
 rotmap:
 (   1->   2)  (   2->   1) 


 irot  :  42
 --------------------------------------------------------------------
 isymop:   0   0  -1
          -1   0   0
           1   1   1

 gtrans:     0.2500000     0.2500000     0.2500000

 ptrans:     0.0000000     0.0000000     0.0000000
 rotmap:
 (   1->   2)  (   2->   1) 


 irot  :  43
 --------------------------------------------------------------------
 isymop:  -1   0   0
           1   1   1
           0  -1   0

 gtrans:     0.2500000     0.2500000     0.2500000

 ptrans:     0.0000000     0.0000000     0.0000000
 rotmap:
 (   1->   2)  (   2->   1) 


 irot  :  44
 --------------------------------------------------------------------
 isymop:   0   0  -1
           1   1   1
          -1   0   0

 gtrans:     0.2500000     0.2500000     0.2500000

 ptrans:     0.0000000     0.0000000     0.0000000
 rotmap:
 (   1->   2)  (   2->   1) 


 irot  :  45
 --------------------------------------------------------------------
 isymop:   0  -1   0
           1   1   1
           0   0  -1

 gtrans:     0.2500000     0.2500000     0.2500000

 ptrans:     0.0000000     0.0000000     0.0000000
 rotmap:
 (   1->   2)  (   2->   1) 


 irot  :  46
 --------------------------------------------------------------------
 isymop:  -1   0   0
           0   0  -1
           0  -1   0

 gtrans:     0.2500000     0.2500000     0.2500000

 ptrans:     0.0000000     0.0000000     0.0000000
 rotmap:
 (   1->   2)  (   2->   1) 


 irot  :  47
 --------------------------------------------------------------------
 isymop:   0  -1   0
          -1   0   0
           0   0  -1

 gtrans:     0.2500000     0.2500000     0.2500000

 ptrans:     0.0000000     0.0000000     0.0000000
 rotmap:
 (   1->   2)  (   2->   1) 


 irot  :  48
 --------------------------------------------------------------------
 isymop:   0   0  -1
           0  -1   0
          -1   0   0

 gtrans:     0.2500000     0.2500000     0.2500000

 ptrans:     0.0000000     0.0000000     0.0000000
 rotmap:
 (   1->   2)  (   2->   1) 


 KPOINTS: Automatic mesh                          

Automatic generation of k-mesh.
Space group operators:
 irot       det(A)        alpha          n_x          n_y          n_z        tau_x        tau_y        tau_z
    1     1.000000     0.000001     1.000000     0.000000     0.000000     0.000000     0.000000     0.000000
    2     1.000000   120.000000    -0.577350    -0.577350    -0.577350     0.000000     0.000000     0.000000
    3     1.000000   120.000000     0.577350     0.577350     0.577350     0.000000     0.000000     0.000000
    4    -1.000000    90.000000     0.000000    -1.000000     0.000000     0.000000     0.000000     0.000000
    5    -1.000000   180.000000     0.707107     0.707107     0.000000     0.000000     0.000000     0.000000
    6    -1.000000    90.000000     1.000000     0.000000     0.000000     0.000000     0.000000     0.000000
    7     1.000000   180.000000     0.000000     1.000000     0.000000     0.000000     0.000000     0.000000
    8     1.000000   120.000000     0.577350     0.577350    -0.577350     0.000000     0.000000     0.000000
    9     1.000000   120.000000     0.577350    -0.577350    -0.577350     0.000000     0.000000     0.000000
   10    -1.000000    90.000000     0.000000     1.000000     0.000000     0.000000     0.000000     0.000000
   11    -1.000000    90.000000     0.000000     0.000000    -1.000000     0.000000     0.000000     0.000000
   12    -1.000000   180.000000     0.000000     0.707107     0.707107     0.000000     0.000000     0.000000
   13     1.000000   120.000000    -0.577350     0.577350     0.577350     0.000000     0.000000     0.000000
   14     1.000000   120.000000    -0.577350     0.577350    -0.577350     0.000000     0.000000     0.000000
   15     1.000000   180.000000     0.000000     0.000000     1.000000     0.000000     0.000000     0.000000
   16    -1.000000    90.000000    -1.000000     0.000000     0.000000     0.000000     0.000000     0.000000
   17    -1.000000   180.000000     0.707107     0.000000     0.707107     0.000000     0.000000     0.000000
   18    -1.000000    90.000000     0.000000     0.000000     1.000000     0.000000     0.000000     0.000000
   19     1.000000   120.000000    -0.577350    -0.577350     0.577350     0.000000     0.000000     0.000000
   20     1.000000   180.000000     1.000000     0.000000     0.000000     0.000000     0.000000     0.000000
   21     1.000000   120.000000     0.577350    -0.577350     0.577350     0.000000     0.000000     0.000000
   22    -1.000000   180.000000     0.707107    -0.707107     0.000000     0.000000     0.000000     0.000000
   23    -1.000000   180.000000     0.707107     0.000000    -0.707107     0.000000     0.000000     0.000000
   24    -1.000000   180.000000     0.000000    -0.707107     0.707107     0.000000     0.000000     0.000000
   25    -1.000000     0.000001     1.000000     0.000000     0.000000     0.250000     0.250000     0.250000
   26    -1.000000   120.000000    -0.577350    -0.577350    -0.577350     0.250000     0.250000     0.250000
   27    -1.000000   120.000000     0.577350     0.577350     0.577350     0.250000     0.250000     0.250000
   28     1.000000    90.000000     0.000000    -1.000000     0.000000     0.250000     0.250000     0.250000
   29     1.000000   180.000000     0.707107     0.707107     0.000000     0.250000     0.250000     0.250000
   30     1.000000    90.000000     1.000000     0.000000     0.000000     0.250000     0.250000     0.250000
   31    -1.000000   180.000000     0.000000     1.000000     0.000000     0.250000     0.250000     0.250000
   32    -1.000000   120.000000     0.577350     0.577350    -0.577350     0.250000     0.250000     0.250000
   33    -1.000000   120.000000     0.577350    -0.577350    -0.577350     0.250000     0.250000     0.250000
   34     1.000000    90.000000     0.000000     1.000000     0.000000     0.250000     0.250000     0.250000
   35     1.000000    90.000000     0.000000     0.000000    -1.000000     0.250000     0.250000     0.250000
   36     1.000000   180.000000     0.000000     0.707107     0.707107     0.250000     0.250000     0.250000
   37    -1.000000   120.000000    -0.577350     0.577350     0.577350     0.250000     0.250000     0.250000
   38    -1.000000   120.000000    -0.577350     0.577350    -0.577350     0.250000     0.250000     0.250000
   39    -1.000000   180.000000     0.000000     0.000000     1.000000     0.250000     0.250000     0.250000
   40     1.000000    90.000000    -1.000000     0.000000     0.000000     0.250000     0.250000     0.250000
   41     1.000000   180.000000     0.707107     0.000000     0.707107     0.250000     0.250000     0.250000
   42     1.000000    90.000000     0.000000     0.000000     1.000000     0.250000     0.250000     0.250000
   43    -1.000000   120.000000    -0.577350    -0.577350     0.577350     0.250000     0.250000     0.250000
   44    -1.000000   180.000000     1.000000     0.000000     0.000000     0.250000     0.250000     0.250000
   45    -1.000000   120.000000     0.577350    -0.577350     0.577350     0.250000     0.250000     0.250000
   46     1.000000   180.000000     0.707107    -0.707107     0.000000     0.250000     0.250000     0.250000
   47     1.000000   180.000000     0.707107     0.000000    -0.707107     0.250000     0.250000     0.250000
   48     1.000000   180.000000     0.000000    -0.707107     0.707107     0.250000     0.250000     0.250000
 
 Subroutine IBZKPT returns following result:
 ===========================================
 
 Found    256 irreducible k-points:
 
 Following reciprocal coordinates:
            Coordinates               Weight
  0.000000  0.000000  0.000000      1.000000
  0.050000  0.000000  0.000000      8.000000
  0.100000  0.000000  0.000000      8.000000
  0.150000  0.000000  0.000000      8.000000
  0.200000  0.000000  0.000000      8.000000
  0.250000  0.000000  0.000000      8.000000
  0.300000  0.000000  0.000000      8.000000
  0.350000  0.000000  0.000000      8.000000
  0.400000  0.000000  0.000000      8.000000
  0.450000  0.000000  0.000000      8.000000
  0.500000  0.000000  0.000000      4.000000
  0.050000  0.050000  0.000000      6.000000
  0.100000  0.050000  0.000000     24.000000
  0.150000  0.050000  0.000000     24.000000
  0.200000  0.050000  0.000000     24.000000
  0.250000  0.050000  0.000000     24.000000
  0.300000  0.050000  0.000000     24.000000
  0.350000  0.050000  0.000000     24.000000
  0.400000  0.050000  0.000000     24.000000
  0.450000  0.050000  0.000000     24.000000
  0.500000  0.050000  0.000000     24.000000
 -0.450000  0.050000  0.000000     24.000000
 -0.400000  0.050000  0.000000     24.000000
 -0.350000  0.050000  0.000000     24.000000
 -0.300000  0.050000  0.000000     24.000000
 -0.250000  0.050000  0.000000     24.000000
 -0.200000  0.050000  0.000000     24.000000
 -0.150000  0.050000  0.000000     24.000000
 -0.100000  0.050000  0.000000     24.000000
 -0.050000  0.050000  0.000000     12.000000
  0.100000  0.100000  0.000000      6.000000
  0.150000  0.100000  0.000000     24.000000
  0.200000  0.100000  0.000000     24.000000
  0.250000  0.100000  0.000000     24.000000
  0.300000  0.100000  0.000000     24.000000
  0.350000  0.100000  0.000000     24.000000
  0.400000  0.100000  0.000000     24.000000
  0.450000  0.100000  0.000000     24.000000
  0.500000  0.100000  0.000000     24.000000
 -0.450000  0.100000  0.000000     24.000000
 -0.400000  0.100000  0.000000     24.000000
 -0.350000  0.100000  0.000000     24.000000
 -0.300000  0.100000  0.000000     24.000000
 -0.250000  0.100000  0.000000     24.000000
 -0.200000  0.100000  0.000000     24.000000
 -0.150000  0.100000  0.000000     24.000000
 -0.100000  0.100000  0.000000     12.000000
  0.150000  0.150000  0.000000      6.000000
  0.200000  0.150000  0.000000     24.000000
  0.250000  0.150000  0.000000     24.000000
  0.300000  0.150000  0.000000     24.000000
  0.350000  0.150000  0.000000     24.000000
  0.400000  0.150000  0.000000     24.000000
  0.450000  0.150000  0.000000     24.000000
  0.500000  0.150000  0.000000     24.000000
 -0.450000  0.150000  0.000000     24.000000
 -0.400000  0.150000  0.000000     24.000000
 -0.350000  0.150000  0.000000     24.000000
 -0.300000  0.150000  0.000000     24.000000
 -0.250000  0.150000  0.000000     24.000000
 -0.200000  0.150000  0.000000     24.000000
 -0.150000  0.150000  0.000000     12.000000
  0.200000  0.200000  0.000000      6.000000
  0.250000  0.200000  0.000000     24.000000
  0.300000  0.200000  0.000000     24.000000
  0.350000  0.200000  0.000000     24.000000
  0.400000  0.200000  0.000000     24.000000
  0.450000  0.200000  0.000000     24.000000
  0.500000  0.200000  0.000000     24.000000
 -0.450000  0.200000  0.000000     24.000000
 -0.400000  0.200000  0.000000     24.000000
 -0.350000  0.200000  0.000000     24.000000
 -0.300000  0.200000  0.000000     24.000000
 -0.250000  0.200000  0.000000     24.000000
 -0.200000  0.200000  0.000000     12.000000
  0.250000  0.250000  0.000000      6.000000
  0.300000  0.250000  0.000000     24.000000
  0.350000  0.250000  0.000000     24.000000
  0.400000  0.250000  0.000000     24.000000
  0.450000  0.250000  0.000000     24.000000
  0.500000  0.250000  0.000000     24.000000
 -0.450000  0.250000  0.000000     24.000000
 -0.400000  0.250000  0.000000     24.000000
 -0.350000  0.250000  0.000000     24.000000
 -0.300000  0.250000  0.000000     24.000000
 -0.250000  0.250000  0.000000     12.000000
  0.300000  0.300000  0.000000      6.000000
  0.350000  0.300000  0.000000     24.000000
  0.400000  0.300000  0.000000     24.000000
  0.450000  0.300000  0.000000     24.000000
  0.500000  0.300000  0.000000     24.000000
 -0.450000  0.300000  0.000000     24.000000
 -0.400000  0.300000  0.000000     24.000000
 -0.350000  0.300000  0.000000     24.000000
 -0.300000  0.300000  0.000000     12.000000
  0.350000  0.350000  0.000000      6.000000
  0.400000  0.350000  0.000000     24.000000
  0.450000  0.350000  0.000000     24.000000
  0.500000  0.350000  0.000000     24.000000
 -0.450000  0.350000  0.000000     24.000000
 -0.400000  0.350000  0.000000     24.000000
 -0.350000  0.350000  0.000000     12.000000
  0.400000  0.400000  0.000000      6.000000
  0.450000  0.400000  0.000000     24.000000
  0.500000  0.400000  0.000000     24.000000
 -0.450000  0.400000  0.000000     24.000000
 -0.400000  0.400000  0.000000     12.000000
  0.450000  0.450000  0.000000      6.000000
  0.500000  0.450000  0.000000     24.000000
 -0.450000  0.450000  0.000000     12.000000
  0.500000  0.500000  0.000000      3.000000
  0.150000  0.100000  0.050000     24.000000
  0.200000  0.100000  0.050000     48.000000
  0.250000  0.100000  0.050000     48.000000
  0.300000  0.100000  0.050000     48.000000
  0.350000  0.100000  0.050000     48.000000
  0.400000  0.100000  0.050000     48.000000
  0.450000  0.100000  0.050000     48.000000
  0.500000  0.100000  0.050000     48.000000
 -0.450000  0.100000  0.050000     24.000000
  0.200000  0.150000  0.050000     24.000000
  0.250000  0.150000  0.050000     48.000000
  0.300000  0.150000  0.050000     48.000000
  0.350000  0.150000  0.050000     48.000000
  0.400000  0.150000  0.050000     48.000000
  0.450000  0.150000  0.050000     48.000000
  0.500000  0.150000  0.050000     48.000000
 -0.450000  0.150000  0.050000     48.000000
 -0.400000  0.150000  0.050000     48.000000
 -0.350000  0.150000  0.050000     48.000000
 -0.300000  0.150000  0.050000     48.000000
 -0.250000  0.150000  0.050000     48.000000
 -0.200000  0.150000  0.050000     48.000000
 -0.150000  0.150000  0.050000     48.000000
 -0.100000  0.150000  0.050000     24.000000
  0.250000  0.200000  0.050000     24.000000
  0.300000  0.200000  0.050000     48.000000
  0.350000  0.200000  0.050000     48.000000
  0.400000  0.200000  0.050000     48.000000
  0.450000  0.200000  0.050000     48.000000
  0.500000  0.200000  0.050000     48.000000
 -0.450000  0.200000  0.050000     48.000000
 -0.400000  0.200000  0.050000     48.000000
 -0.350000  0.200000  0.050000     48.000000
 -0.300000  0.200000  0.050000     48.000000
 -0.250000  0.200000  0.050000     48.000000
 -0.200000  0.200000  0.050000     48.000000
 -0.150000  0.200000  0.050000     24.000000
  0.300000  0.250000  0.050000     24.000000
  0.350000  0.250000  0.050000     48.000000
  0.400000  0.250000  0.050000     48.000000
  0.450000  0.250000  0.050000     48.000000
  0.500000  0.250000  0.050000     48.000000
 -0.450000  0.250000  0.050000     48.000000
 -0.400000  0.250000  0.050000     48.000000
 -0.350000  0.250000  0.050000     48.000000
 -0.300000  0.250000  0.050000     48.000000
 -0.250000  0.250000  0.050000     48.000000
 -0.200000  0.250000  0.050000     24.000000
  0.350000  0.300000  0.050000     24.000000
  0.400000  0.300000  0.050000     48.000000
  0.450000  0.300000  0.050000     48.000000
  0.500000  0.300000  0.050000     48.000000
 -0.450000  0.300000  0.050000     48.000000
 -0.400000  0.300000  0.050000     48.000000
 -0.350000  0.300000  0.050000     48.000000
 -0.300000  0.300000  0.050000     48.000000
 -0.250000  0.300000  0.050000     24.000000
  0.400000  0.350000  0.050000     24.000000
  0.450000  0.350000  0.050000     48.000000
  0.500000  0.350000  0.050000     48.000000
 -0.450000  0.350000  0.050000     48.000000
 -0.400000  0.350000  0.050000     48.000000
 -0.350000  0.350000  0.050000     48.000000
 -0.300000  0.350000  0.050000     24.000000
  0.450000  0.400000  0.050000     24.000000
  0.500000  0.400000  0.050000     48.000000
 -0.450000  0.400000  0.050000     48.000000
 -0.400000  0.400000  0.050000     48.000000
 -0.350000  0.400000  0.050000     24.000000
  0.500000  0.450000  0.050000     24.000000
 -0.450000  0.450000  0.050000     48.000000
 -0.400000  0.450000  0.050000     24.000000
 -0.450000  0.500000  0.050000     12.000000
  0.300000  0.200000  0.100000     24.000000
  0.350000  0.200000  0.100000     48.000000
  0.400000  0.200000  0.100000     48.000000
  0.450000  0.200000  0.100000     48.000000
  0.500000  0.200000  0.100000     48.000000
 -0.450000  0.200000  0.100000     48.000000
 -0.400000  0.200000  0.100000     24.000000
  0.350000  0.250000  0.100000     24.000000
  0.400000  0.250000  0.100000     48.000000
  0.450000  0.250000  0.100000     48.000000
  0.500000  0.250000  0.100000     48.000000
 -0.450000  0.250000  0.100000     48.000000
 -0.400000  0.250000  0.100000     48.000000
 -0.350000  0.250000  0.100000     48.000000
 -0.300000  0.250000  0.100000     48.000000
 -0.250000  0.250000  0.100000     48.000000
 -0.200000  0.250000  0.100000     48.000000
 -0.150000  0.250000  0.100000     24.000000
  0.400000  0.300000  0.100000     24.000000
  0.450000  0.300000  0.100000     48.000000
  0.500000  0.300000  0.100000     48.000000
 -0.450000  0.300000  0.100000     48.000000
 -0.400000  0.300000  0.100000     48.000000
 -0.350000  0.300000  0.100000     48.000000
 -0.300000  0.300000  0.100000     48.000000
 -0.250000  0.300000  0.100000     48.000000
 -0.200000  0.300000  0.100000     24.000000
  0.450000  0.350000  0.100000     24.000000
  0.500000  0.350000  0.100000     48.000000
 -0.450000  0.350000  0.100000     48.000000
 -0.400000  0.350000  0.100000     48.000000
 -0.350000  0.350000  0.100000     48.000000
 -0.300000  0.350000  0.100000     48.000000
 -0.250000  0.350000  0.100000     24.000000
  0.500000  0.400000  0.100000     24.000000
 -0.450000  0.400000  0.100000     48.000000
 -0.400000  0.400000  0.100000     48.000000
 -0.350000  0.400000  0.100000     48.000000
 -0.300000  0.400000  0.100000     24.000000
 -0.450000  0.450000  0.100000     24.000000
 -0.400000  0.450000  0.100000     48.000000
 -0.350000  0.450000  0.100000     24.000000
 -0.400000  0.500000  0.100000     12.000000
  0.450000  0.300000  0.150000     24.000000
  0.500000  0.300000  0.150000     48.000000
 -0.450000  0.300000  0.150000     48.000000
 -0.400000  0.300000  0.150000     48.000000
 -0.350000  0.300000  0.150000     24.000000
  0.500000  0.350000  0.150000     24.000000
 -0.450000  0.350000  0.150000     48.000000
 -0.400000  0.350000  0.150000     48.000000
 -0.350000  0.350000  0.150000     48.000000
 -0.300000  0.350000  0.150000     48.000000
 -0.250000  0.350000  0.150000     48.000000
 -0.200000  0.350000  0.150000     24.000000
 -0.450000  0.400000  0.150000     24.000000
 -0.400000  0.400000  0.150000     48.000000
 -0.350000  0.400000  0.150000     48.000000
 -0.300000  0.400000  0.150000     48.000000
 -0.250000  0.400000  0.150000     24.000000
 -0.400000  0.450000  0.150000     24.000000
 -0.350000  0.450000  0.150000     48.000000
 -0.300000  0.450000  0.150000     24.000000
 -0.350000  0.500000  0.150000     12.000000
 -0.400000  0.400000  0.200000     24.000000
 -0.350000  0.400000  0.200000     48.000000
 -0.300000  0.400000  0.200000     24.000000
 -0.350000  0.450000  0.200000     24.000000
 -0.300000  0.450000  0.200000     48.000000
 -0.250000  0.450000  0.200000     24.000000
 -0.300000  0.500000  0.200000     12.000000
 -0.250000  0.500000  0.250000      6.000000
 
 Following cartesian coordinates:
            Coordinates               Weight
  0.000000  0.000000  0.000000      1.000000
  0.050000  0.050000 -0.050000      8.000000
  0.100000  0.100000 -0.100000      8.000000
  0.150000  0.150000 -0.150000      8.000000
  0.200000  0.200000 -0.200000      8.000000
  0.250000  0.250000 -0.250000      8.000000
  0.300000  0.300000 -0.300000      8.000000
  0.350000  0.350000 -0.350000      8.000000
  0.400000  0.400000 -0.400000      8.000000
  0.450000  0.450000 -0.450000      8.000000
  0.500000  0.500000 -0.500000      4.000000
  0.000000  0.100000  0.000000      6.000000
  0.050000  0.150000 -0.050000     24.000000
  0.100000  0.200000 -0.100000     24.000000
  0.150000  0.250000 -0.150000     24.000000
  0.200000  0.300000 -0.200000     24.000000
  0.250000  0.350000 -0.250000     24.000000
  0.300000  0.400000 -0.300000     24.000000
  0.350000  0.450000 -0.350000     24.000000
  0.400000  0.500000 -0.400000     24.000000
  0.450000  0.550000 -0.450000     24.000000
 -0.500000 -0.400000  0.500000     24.000000
 -0.450000 -0.350000  0.450000     24.000000
 -0.400000 -0.300000  0.400000     24.000000
 -0.350000 -0.250000  0.350000     24.000000
 -0.300000 -0.200000  0.300000     24.000000
 -0.250000 -0.150000  0.250000     24.000000
 -0.200000 -0.100000  0.200000     24.000000
 -0.150000 -0.050000  0.150000     24.000000
 -0.100000  0.000000  0.100000     12.000000
  0.000000  0.200000  0.000000      6.000000
  0.050000  0.250000 -0.050000     24.000000
  0.100000  0.300000 -0.100000     24.000000
  0.150000  0.350000 -0.150000     24.000000
  0.200000  0.400000 -0.200000     24.000000
  0.250000  0.450000 -0.250000     24.000000
  0.300000  0.500000 -0.300000     24.000000
  0.350000  0.550000 -0.350000     24.000000
  0.400000  0.600000 -0.400000     24.000000
 -0.550000 -0.350000  0.550000     24.000000
 -0.500000 -0.300000  0.500000     24.000000
 -0.450000 -0.250000  0.450000     24.000000
 -0.400000 -0.200000  0.400000     24.000000
 -0.350000 -0.150000  0.350000     24.000000
 -0.300000 -0.100000  0.300000     24.000000
 -0.250000 -0.050000  0.250000     24.000000
 -0.200000  0.000000  0.200000     12.000000
  0.000000  0.300000  0.000000      6.000000
  0.050000  0.350000 -0.050000     24.000000
  0.100000  0.400000 -0.100000     24.000000
  0.150000  0.450000 -0.150000     24.000000
  0.200000  0.500000 -0.200000     24.000000
  0.250000  0.550000 -0.250000     24.000000
  0.300000  0.600000 -0.300000     24.000000
  0.350000  0.650000 -0.350000     24.000000
 -0.600000 -0.300000  0.600000     24.000000
 -0.550000 -0.250000  0.550000     24.000000
 -0.500000 -0.200000  0.500000     24.000000
 -0.450000 -0.150000  0.450000     24.000000
 -0.400000 -0.100000  0.400000     24.000000
 -0.350000 -0.050000  0.350000     24.000000
 -0.300000  0.000000  0.300000     12.000000
  0.000000  0.400000  0.000000      6.000000
  0.050000  0.450000 -0.050000     24.000000
  0.100000  0.500000 -0.100000     24.000000
  0.150000  0.550000 -0.150000     24.000000
  0.200000  0.600000 -0.200000     24.000000
  0.250000  0.650000 -0.250000     24.000000
  0.300000  0.700000 -0.300000     24.000000
 -0.650000 -0.250000  0.650000     24.000000
 -0.600000 -0.200000  0.600000     24.000000
 -0.550000 -0.150000  0.550000     24.000000
 -0.500000 -0.100000  0.500000     24.000000
 -0.450000 -0.050000  0.450000     24.000000
 -0.400000  0.000000  0.400000     12.000000
  0.000000  0.500000  0.000000      6.000000
  0.050000  0.550000 -0.050000     24.000000
  0.100000  0.600000 -0.100000     24.000000
  0.150000  0.650000 -0.150000     24.000000
  0.200000  0.700000 -0.200000     24.000000
  0.250000  0.750000 -0.250000     24.000000
 -0.700000 -0.200000  0.700000     24.000000
 -0.650000 -0.150000  0.650000     24.000000
 -0.600000 -0.100000  0.600000     24.000000
 -0.550000 -0.050000  0.550000     24.000000
 -0.500000  0.000000  0.500000     12.000000
  0.000000  0.600000  0.000000      6.000000
  0.050000  0.650000 -0.050000     24.000000
  0.100000  0.700000 -0.100000     24.000000
  0.150000  0.750000 -0.150000     24.000000
  0.200000  0.800000 -0.200000     24.000000
 -0.750000 -0.150000  0.750000     24.000000
 -0.700000 -0.100000  0.700000     24.000000
 -0.650000 -0.050000  0.650000     24.000000
 -0.600000  0.000000  0.600000     12.000000
  0.000000  0.700000  0.000000      6.000000
  0.050000  0.750000 -0.050000     24.000000
  0.100000  0.800000 -0.100000     24.000000
  0.150000  0.850000 -0.150000     24.000000
 -0.800000 -0.100000  0.800000     24.000000
 -0.750000 -0.050000  0.750000     24.000000
 -0.700000  0.000000  0.700000     12.000000
  0.000000  0.800000  0.000000      6.000000
  0.050000  0.850000 -0.050000     24.000000
  0.100000  0.900000 -0.100000     24.000000
 -0.850000 -0.050000  0.850000     24.000000
 -0.800000  0.000000  0.800000     12.000000
  0.000000  0.900000  0.000000      6.000000
  0.050000  0.950000 -0.050000     24.000000
 -0.900000  0.000000  0.900000     12.000000
  0.000000  1.000000  0.000000      3.000000
  0.100000  0.200000 -0.000000     24.000000
  0.150000  0.250000 -0.050000     48.000000
  0.200000  0.300000 -0.100000     48.000000
  0.250000  0.350000 -0.150000     48.000000
  0.300000  0.400000 -0.200000     48.000000
  0.350000  0.450000 -0.250000     48.000000
  0.400000  0.500000 -0.300000     48.000000
  0.450000  0.550000 -0.350000     48.000000
 -0.500000 -0.400000  0.600000     24.000000
  0.100000  0.300000  0.000000     24.000000
  0.150000  0.350000 -0.050000     48.000000
  0.200000  0.400000 -0.100000     48.000000
  0.250000  0.450000 -0.150000     48.000000
  0.300000  0.500000 -0.200000     48.000000
  0.350000  0.550000 -0.250000     48.000000
  0.400000  0.600000 -0.300000     48.000000
 -0.550000 -0.350000  0.650000     48.000000
 -0.500000 -0.300000  0.600000     48.000000
 -0.450000 -0.250000  0.550000     48.000000
 -0.400000 -0.200000  0.500000     48.000000
 -0.350000 -0.150000  0.450000     48.000000
 -0.300000 -0.100000  0.400000     48.000000
 -0.250000 -0.050000  0.350000     48.000000
 -0.200000  0.000000  0.300000     24.000000
  0.100000  0.400000  0.000000     24.000000
  0.150000  0.450000 -0.050000     48.000000
  0.200000  0.500000 -0.100000     48.000000
  0.250000  0.550000 -0.150000     48.000000
  0.300000  0.600000 -0.200000     48.000000
  0.350000  0.650000 -0.250000     48.000000
 -0.600000 -0.300000  0.700000     48.000000
 -0.550000 -0.250000  0.650000     48.000000
 -0.500000 -0.200000  0.600000     48.000000
 -0.450000 -0.150000  0.550000     48.000000
 -0.400000 -0.100000  0.500000     48.000000
 -0.350000 -0.050000  0.450000     48.000000
 -0.300000  0.000000  0.400000     24.000000
  0.100000  0.500000  0.000000     24.000000
  0.150000  0.550000 -0.050000     48.000000
  0.200000  0.600000 -0.100000     48.000000
  0.250000  0.650000 -0.150000     48.000000
  0.300000  0.700000 -0.200000     48.000000
 -0.650000 -0.250000  0.750000     48.000000
 -0.600000 -0.200000  0.700000     48.000000
 -0.550000 -0.150000  0.650000     48.000000
 -0.500000 -0.100000  0.600000     48.000000
 -0.450000 -0.050000  0.550000     48.000000
 -0.400000  0.000000  0.500000     24.000000
  0.100000  0.600000  0.000000     24.000000
  0.150000  0.650000 -0.050000     48.000000
  0.200000  0.700000 -0.100000     48.000000
  0.250000  0.750000 -0.150000     48.000000
 -0.700000 -0.200000  0.800000     48.000000
 -0.650000 -0.150000  0.750000     48.000000
 -0.600000 -0.100000  0.700000     48.000000
 -0.550000 -0.050000  0.650000     48.000000
 -0.500000  0.000000  0.600000     24.000000
  0.100000  0.700000 -0.000000     24.000000
  0.150000  0.750000 -0.050000     48.000000
  0.200000  0.800000 -0.100000     48.000000
 -0.750000 -0.150000  0.850000     48.000000
 -0.700000 -0.100000  0.800000     48.000000
 -0.650000 -0.050000  0.750000     48.000000
 -0.600000  0.000000  0.700000     24.000000
  0.100000  0.800000  0.000000     24.000000
  0.150000  0.850000 -0.050000     48.000000
 -0.800000 -0.100000  0.900000     48.000000
 -0.750000 -0.050000  0.850000     48.000000
 -0.700000  0.000000  0.800000     24.000000
  0.100000  0.900000  0.000000     24.000000
 -0.850000 -0.050000  0.950000     48.000000
 -0.800000  0.000000  0.900000     24.000000
 -0.900000  0.000000  1.000000     12.000000
  0.200000  0.400000  0.000000     24.000000
  0.250000  0.450000 -0.050000     48.000000
  0.300000  0.500000 -0.100000     48.000000
  0.350000  0.550000 -0.150000     48.000000
  0.400000  0.600000 -0.200000     48.000000
 -0.550000 -0.350000  0.750000     48.000000
 -0.500000 -0.300000  0.700000     24.000000
  0.200000  0.500000  0.000000     24.000000
  0.250000  0.550000 -0.050000     48.000000
  0.300000  0.600000 -0.100000     48.000000
  0.350000  0.650000 -0.150000     48.000000
 -0.600000 -0.300000  0.800000     48.000000
 -0.550000 -0.250000  0.750000     48.000000
 -0.500000 -0.200000  0.700000     48.000000
 -0.450000 -0.150000  0.650000     48.000000
 -0.400000 -0.100000  0.600000     48.000000
 -0.350000 -0.050000  0.550000     48.000000
 -0.300000  0.000000  0.500000     24.000000
  0.200000  0.600000 -0.000000     24.000000
  0.250000  0.650000 -0.050000     48.000000
  0.300000  0.700000 -0.100000     48.000000
 -0.650000 -0.250000  0.850000     48.000000
 -0.600000 -0.200000  0.800000     48.000000
 -0.550000 -0.150000  0.750000     48.000000
 -0.500000 -0.100000  0.700000     48.000000
 -0.450000 -0.050000  0.650000     48.000000
 -0.400000  0.000000  0.600000     24.000000
  0.200000  0.700000 -0.000000     24.000000
  0.250000  0.750000 -0.050000     48.000000
 -0.700000 -0.200000  0.900000     48.000000
 -0.650000 -0.150000  0.850000     48.000000
 -0.600000 -0.100000  0.800000     48.000000
 -0.550000 -0.050000  0.750000     48.000000
 -0.500000  0.000000  0.700000     24.000000
  0.200000  0.800000  0.000000     24.000000
 -0.750000 -0.150000  0.950000     48.000000
 -0.700000 -0.100000  0.900000     48.000000
 -0.650000 -0.050000  0.850000     48.000000
 -0.600000  0.000000  0.800000     24.000000
 -0.800000 -0.100000  1.000000     24.000000
 -0.750000 -0.050000  0.950000     48.000000
 -0.700000  0.000000  0.900000     24.000000
 -0.800000  0.000000  1.000000     12.000000
  0.300000  0.600000  0.000000     24.000000
  0.350000  0.650000 -0.050000     48.000000
 -0.600000 -0.300000  0.900000     48.000000
 -0.550000 -0.250000  0.850000     48.000000
 -0.500000 -0.200000  0.800000     24.000000
  0.300000  0.700000  0.000000     24.000000
 -0.650000 -0.250000  0.950000     48.000000
 -0.600000 -0.200000  0.900000     48.000000
 -0.550000 -0.150000  0.850000     48.000000
 -0.500000 -0.100000  0.800000     48.000000
 -0.450000 -0.050000  0.750000     48.000000
 -0.400000 -0.000000  0.700000     24.000000
 -0.700000 -0.200000  1.000000     24.000000
 -0.650000 -0.150000  0.950000     48.000000
 -0.600000 -0.100000  0.900000     48.000000
 -0.550000 -0.050000  0.850000     48.000000
 -0.500000  0.000000  0.800000     24.000000
 -0.700000 -0.100000  1.000000     24.000000
 -0.650000 -0.050000  0.950000     48.000000
 -0.600000  0.000000  0.900000     24.000000
 -0.700000  0.000000  1.000000     12.000000
 -0.600000 -0.200000  1.000000     24.000000
 -0.550000 -0.150000  0.950000     48.000000
 -0.500000 -0.100000  0.900000     24.000000
 -0.600000 -0.100000  1.000000     24.000000
 -0.550000 -0.050000  0.950000     48.000000
 -0.500000  0.000000  0.900000     24.000000
 -0.600000  0.000000  1.000000     12.000000
 -0.500000  0.000000  1.000000      6.000000
 


--------------------------------------------------------------------------------------------------------




 Dimension of arrays:
   k-points           NKPTS =    256   k-points in BZ     NKDIM =    256   number of bands    NBANDS=      8
   number of dos      NEDOS =    301   number of ions     NIONS =      2
   non local maximal  LDIM  =      4   non local SUM 2l+1 LMDIM =      8
   total plane-waves  NPLWV =  21952
   max r-space proj   IRMAX =      1   max aug-charges    IRDMAX=  18535
   dimension x,y,z NGX =    28 NGY =   28 NGZ =   28
   dimension x,y,z NGXF=    56 NGYF=   56 NGZF=   56
   support grid    NGXF=    56 NGYF=   56 NGZF=   56
   ions per type =               2
 NGX,Y,Z   is equivalent  to a cutoff of  12.12, 12.12, 12.12 a.u.
 NGXF,Y,Z  is equivalent  to a cutoff of  24.25, 24.25, 24.25 a.u.


 I would recommend the setting:
   dimension x,y,z NGX =    25 NGY =   25 NGZ =   25
 SYSTEM =  Si2                                     
 POSCAR =  Si2                                     

 Startparameter for this run:
   NWRITE =      3    write-flag & timer
   PREC   = accura    normal or accurate (medium, high low for compatibility)
   ISTART =      1    job   : 0-new  1-cont  2-samecut
   ICHARG =      0    charge: 1-file 2-atom 10-const
   ISPIN  =      1    spin polarized calculation?
   LNONCOLLINEAR =      F non collinear calculations
   LSORBIT =      F    spin-orbit coupling
   INIWAV =      1    electr: 0-lowe 1-rand  2-diag
   LASPH  =      F    aspherical Exc in radial PAW
   METAGGA=      F    non-selfconsistent MetaGGA calc.

 Electronic Relaxation 1
   ENCUT  =  400.0 eV  29.40 Ry    5.42 a.u.   6.26  6.26  6.26*2*pi/ulx,y,z
   ENINI  =  400.0     initial cutoff
   ENAUG  =  322.1 eV  augmentation charge cutoff
   NELM   =     60;   NELMIN=  2; NELMDL=  0     # of ELM steps 
   EDIFF  = 0.1E-05   stopping-criterion for ELM
   LREAL  =      F    real-space projection
   NLSPLINE    = F    spline interpolate recip. space projectors
   LCOMPAT=      F    compatible to vasp.4.4
   GGA_COMPAT  = T    GGA compatible to vasp.4.4-vasp.4.6
   LMAXPAW     = -100 max onsite density
   LMAXMIX     =    2 max onsite mixed and CHGCAR
   VOSKOWN=      0    Vosko Wilk Nusair interpolation
   ROPT   =    0.00000
 Ionic relaxation
   EDIFFG = 0.1E-04   stopping-criterion for IOM
   NSW    =      0    number of steps for IOM
   NBLOCK =      1;   KBLOCK =      1    inner block; outer block 
   IBRION =     -1    ionic relax: 0-MD 1-quasi-New 2-CG
   NFREE  =      0    steps in history (QN), initial steepest desc. (CG)
   ISIF   =      3    stress and relaxation
   IWAVPR =     10    prediction:  0-non 1-charg 2-wave 3-comb
   ISYM   =      2    0-nonsym 1-usesym 2-fastsym
   LCORR  =      T    Harris-Foulkes like correction to forces

   POTIM  = 0.5000    time-step for ionic-motion
   TEIN   =    0.0    initial temperature
   TEBEG  =    0.0;   TEEND  =   0.0 temperature during run
   SMASS  =  -3.00    Nose mass-parameter (am)
   estimated Nose-frequenzy (Omega)   =  0.10E-29 period in steps =****** mass=  -0.337E-27a.u.
   SCALEE = 1.0000    scale energy and forces
   NPACO  =    256;   APACO  = 16.0  distance and # of slots for P.C.
   PSTRESS=    0.0 pullay stress

  Mass of Ions in am
   POMASS =  28.09
  Ionic Valenz
   ZVAL   =   4.00
  Atomic Wigner-Seitz radii
   RWIGS  =  -1.00
  virtual crystal weights 
   VCA    =   1.00
   NELECT =       8.0000    total number of electrons
   NUPDOWN=      -1.0000    fix difference up-down

 DOS related values:
   EMIN   =  10.00;   EMAX   =-10.00  energy-range for DOS
   EFERMI =   0.00
   ISMEAR =     1;   SIGMA  =   0.10  broadening in eV -4-tet -1-fermi 0-gaus

 Electronic relaxation 2 (details)
   IALGO  =     38    algorithm
   LDIAG  =      T    sub-space diagonalisation (order eigenvalues)
   LSUBROT=      F    optimize rotation matrix (better conditioning)
   TURBO    =      0    0=normal 1=particle mesh
   IRESTART =      0    0=no restart 2=restart with 2 vectors
   NREBOOT  =      0    no. of reboots
   NMIN     =      0    reboot dimension
   EREF     =   0.00    reference energy to select bands
   IMIX   =      4    mixing-type and parameters
     AMIX     =   0.40;   BMIX     =  1.00
     AMIX_MAG =   1.60;   BMIX_MAG =  1.00
     AMIN     =   0.10
     WC   =   100.;   INIMIX=   1;  MIXPRE=   1;  MAXMIX= -45

 Intra band minimization:
   WEIMIN = 0.0000     energy-eigenvalue tresh-hold
   EBREAK =  0.31E-07  absolut break condition
   DEPER  =   0.30     relativ break condition  

   TIME   =   0.40     timestep for ELM

  volume/ion in A,a.u.               =      20.01       135.05
  Fermi-wavevector in a.u.,A,eV,Ry     =   0.957176  1.808800 12.465458  0.916185
  Thomas-Fermi vector in A             =   2.086170

 Write flags
   LWAVE  =      T    write WAVECAR
   LCHARG =      T    write CHGCAR
   LVTOT  =      F    write LOCPOT, total local potential
   LVHAR  =      F    write LOCPOT, Hartree potential only
   LELF   =      F    write electronic localiz. function (ELF)
   LORBIT =      0    0 simple, 1 ext, 2 COOP (PROOUT)


 Dipole corrections
   LMONO  =      F    monopole corrections only (constant potential shift)
   LDIPOL =      F    correct potential (dipole corrections)
   IDIPOL =      0    1-x, 2-y, 3-z, 4-all directions 
   EPSILON=  1.0000000 bulk dielectric constant

 Exchange correlation treatment:
   GGA     =    --    GGA type
   LEXCH   =     8    internal setting for exchange type
   VOSKOWN=      0    Vosko Wilk Nusair interpolation
   LHFCALC =     F    Hartree Fock is set to
   LHFONE  =     F    Hartree Fock one center treatment
   AEXX    =    0.0000 exact exchange contribution

 Linear response parameters
   LEPSILON=     F    determine dielectric tensor
   LRPA    =     F    only Hartree local field effects (RPA)
   LNABLA  =     F    use nabla operator in PAW spheres
   LVEL    =     F    velocity operator in full k-point grid
   LINTERFAST=   F  fast interpolation
   KINTER  =     0    interpolate to denser k-point grid
   CSHIFT  =0.1000    complex shift for real part using Kramers Kronig
   OMEGAMAX=  -1.0    maximum frequency
   DEG_THRESHOLD= 0.2000000E-02 threshold for treating states as degnerate
   RTIME   =    0.100 relaxation time in fs

 Orbital magnetization related:
   ORBITALMAG=     F  switch on orbital magnetization
   LCHIMAG   =     F  perturbation theory with respect to B field
   DQ        =  0.001000  dq finite difference perturbation B field



--------------------------------------------------------------------------------------------------------


 Static calculation
 charge density and potential will be updated during run
 non-spin polarized calculation
 Variant of blocked Davidson
 Davidson routine will perform the subspace rotation
 perform sub-space diagonalisation
    after iterative eigenvector-optimisation
 modified Broyden-mixing scheme, WC =      100.0
 initial mixing is a Kerker type mixing with AMIX =  0.4000 and BMIX =      1.0000
 Hartree-type preconditioning will be used
 using additional bands            4
 reciprocal scheme for non local part
 use partial core corrections
 calculate Harris-corrections to forces   (improved forces if not selfconsistent)
 use gradient corrections 
 use of overlap-Matrix (Vanderbilt PP)
 Methfessel and Paxton  Order N= 1 SIGMA  =   0.10


--------------------------------------------------------------------------------------------------------


  energy-cutoff  :      400.00
  volume of cell :       40.03
      direct lattice vectors                 reciprocal lattice vectors
     2.715000000  2.715000000  0.000000000     0.184162063  0.184162063 -0.184162063
     0.000000000  2.715000000  2.715000000    -0.184162063  0.184162063  0.184162063
     2.715000000  0.000000000  2.715000000     0.184162063 -0.184162063  0.184162063

  length of vectors
     3.839589822  3.839589822  3.839589822     0.318978049  0.318978049  0.318978049



 old parameters found on file WAVECAR:
  energy-cutoff  :      400.00
  volume of cell :       40.03
      direct lattice vectors                 reciprocal lattice vectors
     2.715000000  2.715000000  0.000000000     0.184162063  0.184162063 -0.184162063
     0.000000000  2.715000000  2.715000000    -0.184162063  0.184162063  0.184162063
     2.715000000  0.000000000  2.715000000     0.184162063 -0.184162063  0.184162063

  length of vectors


 k-points in units of 2pi/SCALE and weight: Automatic mesh                          
   0.00000000  0.00000000  0.00000000       0.000
   0.05000000  0.05000000 -0.05000000       0.001
   0.10000000  0.10000000 -0.10000000       0.001
   0.15000000  0.15000000 -0.15000000       0.001
   0.20000000  0.20000000 -0.20000000       0.001
   0.25000000  0.25000000 -0.25000000       0.001
   0.30000000  0.30000000 -0.30000000       0.001
   0.35000000  0.35000000 -0.35000000       0.001
   0.40000000  0.40000000 -0.40000000       0.001
   0.45000000  0.45000000 -0.45000000       0.001
   0.50000000  0.50000000 -0.50000000       0.001
   0.00000000  0.10000000  0.00000000       0.001
   0.05000000  0.15000000 -0.05000000       0.003
   0.10000000  0.20000000 -0.10000000       0.003
   0.15000000  0.25000000 -0.15000000       0.003
   0.20000000  0.30000000 -0.20000000       0.003
   0.25000000  0.35000000 -0.25000000       0.003
   0.30000000  0.40000000 -0.30000000       0.003
   0.35000000  0.45000000 -0.35000000       0.003
   0.40000000  0.50000000 -0.40000000       0.003
   0.45000000  0.55000000 -0.45000000       0.003
  -0.50000000 -0.40000000  0.50000000       0.003
  -0.45000000 -0.35000000  0.45000000       0.003
  -0.40000000 -0.30000000  0.40000000       0.003
  -0.35000000 -0.25000000  0.35000000       0.003
  -0.30000000 -0.20000000  0.30000000       0.003
  -0.25000000 -0.15000000  0.25000000       0.003
  -0.20000000 -0.10000000  0.20000000       0.003
  -0.15000000 -0.05000000  0.15000000       0.003
  -0.10000000  0.00000000  0.10000000       0.002
   0.00000000  0.20000000  0.00000000       0.001
   0.05000000  0.25000000 -0.05000000       0.003
   0.10000000  0.30000000 -0.10000000       0.003
   0.15000000  0.35000000 -0.15000000       0.003
   0.20000000  0.40000000 -0.20000000       0.003
   0.25000000  0.45000000 -0.25000000       0.003
   0.30000000  0.50000000 -0.30000000       0.003
   0.35000000  0.55000000 -0.35000000       0.003
   0.40000000  0.60000000 -0.40000000       0.003
  -0.55000000 -0.35000000  0.55000000       0.003
  -0.50000000 -0.30000000  0.50000000       0.003
  -0.45000000 -0.25000000  0.45000000       0.003
  -0.40000000 -0.20000000  0.40000000       0.003
  -0.35000000 -0.15000000  0.35000000       0.003
  -0.30000000 -0.10000000  0.30000000       0.003
  -0.25000000 -0.05000000  0.25000000       0.003
  -0.20000000  0.00000000  0.20000000       0.002
   0.00000000  0.30000000  0.00000000       0.001
   0.05000000  0.35000000 -0.05000000       0.003
   0.10000000  0.40000000 -0.10000000       0.003
   0.15000000  0.45000000 -0.15000000       0.003
   0.20000000  0.50000000 -0.20000000       0.003
   0.25000000  0.55000000 -0.25000000       0.003
   0.30000000  0.60000000 -0.30000000       0.003
   0.35000000  0.65000000 -0.35000000       0.003
  -0.60000000 -0.30000000  0.60000000       0.003
  -0.55000000 -0.25000000  0.55000000       0.003
  -0.50000000 -0.20000000  0.50000000       0.003
  -0.45000000 -0.15000000  0.45000000       0.003
  -0.40000000 -0.10000000  0.40000000       0.003
  -0.35000000 -0.05000000  0.35000000       0.003
  -0.30000000  0.00000000  0.30000000       0.002
   0.00000000  0.40000000  0.00000000       0.001
   0.05000000  0.45000000 -0.05000000       0.003
   0.10000000  0.50000000 -0.10000000       0.003
   0.15000000  0.55000000 -0.15000000       0.003
   0.20000000  0.60000000 -0.20000000       0.003
   0.25000000  0.65000000 -0.25000000       0.003
   0.30000000  0.70000000 -0.30000000       0.003
  -0.65000000 -0.25000000  0.65000000       0.003
  -0.60000000 -0.20000000  0.60000000       0.003
  -0.55000000 -0.15000000  0.55000000       0.003
  -0.50000000 -0.10000000  0.50000000       0.003
  -0.45000000 -0.05000000  0.45000000       0.003
  -0.40000000  0.00000000  0.40000000       0.002
   0.00000000  0.50000000  0.00000000       0.001
   0.05000000  0.55000000 -0.05000000       0.003
   0.10000000  0.60000000 -0.10000000       0.003
   0.15000000  0.65000000 -0.15000000       0.003
   0.20000000  0.70000000 -0.20000000       0.003
   0.25000000  0.75000000 -0.25000000       0.003
  -0.70000000 -0.20000000  0.70000000       0.003
  -0.65000000 -0.15000000  0.65000000       0.003
  -0.60000000 -0.10000000  0.60000000       0.003
  -0.55000000 -0.05000000  0.55000000       0.003
  -0.50000000  0.00000000  0.50000000       0.002
   0.00000000  0.60000000  0.00000000       0.001
   0.05000000  0.65000000 -0.05000000       0.003
   0.10000000  0.70000000 -0.10000000       0.003
   0.15000000  0.75000000 -0.15000000       0.003
   0.20000000  0.80000000 -0.20000000       0.003
  -0.75000000 -0.15000000  0.75000000       0.003
  -0.70000000 -0.10000000  0.70000000       0.003
  -0.65000000 -0.05000000  0.65000000       0.003
  -0.60000000  0.00000000  0.60000000       0.002
   0.00000000  0.70000000  0.00000000       0.001
   0.05000000  0.75000000 -0.05000000       0.003
   0.10000000  0.80000000 -0.10000000       0.003
   0.15000000  0.85000000 -0.15000000       0.003
  -0.80000000 -0.10000000  0.80000000       0.003
  -0.75000000 -0.05000000  0.75000000       0.003
  -0.70000000  0.00000000  0.70000000       0.002
   0.00000000  0.80000000  0.00000000       0.001
   0.05000000  0.85000000 -0.05000000       0.003
   0.10000000  0.90000000 -0.10000000       0.003
  -0.85000000 -0.05000000  0.85000000       0.003
  -0.80000000  0.00000000  0.80000000       0.002
   0.00000000  0.90000000  0.00000000       0.001
   0.05000000  0.95000000 -0.05000000       0.003
  -0.90000000  0.00000000  0.90000000       0.002
   0.00000000  1.00000000  0.00000000       0.000
   0.10000000  0.20000000 -0.00000000       0.003
   0.15000000  0.25000000 -0.05000000       0.006
   0.20000000  0.30000000 -0.10000000       0.006
   0.25000000  0.35000000 -0.15000000       0.006
   0.30000000  0.40000000 -0.20000000       0.006
   0.35000000  0.45000000 -0.25000000       0.006
   0.40000000  0.50000000 -0.30000000       0.006
   0.45000000  0.55000000 -0.35000000       0.006
  -0.50000000 -0.40000000  0.60000000       0.003
   0.10000000  0.30000000  0.00000000       0.003
   0.15000000  0.35000000 -0.05000000       0.006
   0.20000000  0.40000000 -0.10000000       0.006
   0.25000000  0.45000000 -0.15000000       0.006
   0.30000000  0.50000000 -0.20000000       0.006
   0.35000000  0.55000000 -0.25000000       0.006
   0.40000000  0.60000000 -0.30000000       0.006
  -0.55000000 -0.35000000  0.65000000       0.006
  -0.50000000 -0.30000000  0.60000000       0.006
  -0.45000000 -0.25000000  0.55000000       0.006
  -0.40000000 -0.20000000  0.50000000       0.006
  -0.35000000 -0.15000000  0.45000000       0.006
  -0.30000000 -0.10000000  0.40000000       0.006
  -0.25000000 -0.05000000  0.35000000       0.006
  -0.20000000  0.00000000  0.30000000       0.003
   0.10000000  0.40000000  0.00000000       0.003
   0.15000000  0.45000000 -0.05000000       0.006
   0.20000000  0.50000000 -0.10000000       0.006
   0.25000000  0.55000000 -0.15000000       0.006
   0.30000000  0.60000000 -0.20000000       0.006
   0.35000000  0.65000000 -0.25000000       0.006
  -0.60000000 -0.30000000  0.70000000       0.006
  -0.55000000 -0.25000000  0.65000000       0.006
  -0.50000000 -0.20000000  0.60000000       0.006
  -0.45000000 -0.15000000  0.55000000       0.006
  -0.40000000 -0.10000000  0.50000000       0.006
  -0.35000000 -0.05000000  0.45000000       0.006
  -0.30000000  0.00000000  0.40000000       0.003
   0.10000000  0.50000000  0.00000000       0.003
   0.15000000  0.55000000 -0.05000000       0.006
   0.20000000  0.60000000 -0.10000000       0.006
   0.25000000  0.65000000 -0.15000000       0.006
   0.30000000  0.70000000 -0.20000000       0.006
  -0.65000000 -0.25000000  0.75000000       0.006
  -0.60000000 -0.20000000  0.70000000       0.006
  -0.55000000 -0.15000000  0.65000000       0.006
  -0.50000000 -0.10000000  0.60000000       0.006
  -0.45000000 -0.05000000  0.55000000       0.006
  -0.40000000  0.00000000  0.50000000       0.003
   0.10000000  0.60000000  0.00000000       0.003
   0.15000000  0.65000000 -0.05000000       0.006
   0.20000000  0.70000000 -0.10000000       0.006
   0.25000000  0.75000000 -0.15000000       0.006
  -0.70000000 -0.20000000  0.80000000       0.006
  -0.65000000 -0.15000000  0.75000000       0.006
  -0.60000000 -0.10000000  0.70000000       0.006
  -0.55000000 -0.05000000  0.65000000       0.006
  -0.50000000  0.00000000  0.60000000       0.003
   0.10000000  0.70000000 -0.00000000       0.003
   0.15000000  0.75000000 -0.05000000       0.006
   0.20000000  0.80000000 -0.10000000       0.006
  -0.75000000 -0.15000000  0.85000000       0.006
  -0.70000000 -0.10000000  0.80000000       0.006
  -0.65000000 -0.05000000  0.75000000       0.006
  -0.60000000  0.00000000  0.70000000       0.003
   0.10000000  0.80000000  0.00000000       0.003
   0.15000000  0.85000000 -0.05000000       0.006
  -0.80000000 -0.10000000  0.90000000       0.006
  -0.75000000 -0.05000000  0.85000000       0.006
  -0.70000000  0.00000000  0.80000000       0.003
   0.10000000  0.90000000  0.00000000       0.003
  -0.85000000 -0.05000000  0.95000000       0.006
  -0.80000000  0.00000000  0.90000000       0.003
  -0.90000000  0.00000000  1.00000000       0.002
   0.20000000  0.40000000  0.00000000       0.003
   0.25000000  0.45000000 -0.05000000       0.006
   0.30000000  0.50000000 -0.10000000       0.006
   0.35000000  0.55000000 -0.15000000       0.006
   0.40000000  0.60000000 -0.20000000       0.006
  -0.55000000 -0.35000000  0.75000000       0.006
  -0.50000000 -0.30000000  0.70000000       0.003
   0.20000000  0.50000000  0.00000000       0.003
   0.25000000  0.55000000 -0.05000000       0.006
   0.30000000  0.60000000 -0.10000000       0.006
   0.35000000  0.65000000 -0.15000000       0.006
  -0.60000000 -0.30000000  0.80000000       0.006
  -0.55000000 -0.25000000  0.75000000       0.006
  -0.50000000 -0.20000000  0.70000000       0.006
  -0.45000000 -0.15000000  0.65000000       0.006
  -0.40000000 -0.10000000  0.60000000       0.006
  -0.35000000 -0.05000000  0.55000000       0.006
  -0.30000000  0.00000000  0.50000000       0.003
   0.20000000  0.60000000 -0.00000000       0.003
   0.25000000  0.65000000 -0.05000000       0.006
   0.30000000  0.70000000 -0.10000000       0.006
  -0.65000000 -0.25000000  0.85000000       0.006
  -0.60000000 -0.20000000  0.80000000       0.006
  -0.55000000 -0.15000000  0.75000000       0.006
  -0.50000000 -0.10000000  0.70000000       0.006
  -0.45000000 -0.05000000  0.65000000       0.006
  -0.40000000  0.00000000  0.60000000       0.003
   0.20000000  0.70000000 -0.00000000       0.003
   0.25000000  0.75000000 -0.05000000       0.006
  -0.70000000 -0.20000000  0.90000000       0.006
  -0.65000000 -0.15000000  0.85000000       0.006
  -0.60000000 -0.10000000  0.80000000       0.006
  -0.55000000 -0.05000000  0.75000000       0.006
  -0.50000000  0.00000000  0.70000000       0.003
   0.20000000  0.80000000  0.00000000       0.003
  -0.75000000 -0.15000000  0.95000000       0.006
  -0.70000000 -0.10000000  0.90000000       0.006
  -0.65000000 -0.05000000  0.85000000       0.006
  -0.60000000  0.00000000  0.80000000       0.003
  -0.80000000 -0.10000000  1.00000000       0.003
  -0.75000000 -0.05000000  0.95000000       0.006
  -0.70000000  0.00000000  0.90000000       0.003
  -0.80000000  0.00000000  1.00000000       0.002
   0.30000000  0.60000000  0.00000000       0.003
   0.35000000  0.65000000 -0.05000000       0.006
  -0.60000000 -0.30000000  0.90000000       0.006
  -0.55000000 -0.25000000  0.85000000       0.006
  -0.50000000 -0.20000000  0.80000000       0.003
   0.30000000  0.70000000  0.00000000       0.003
  -0.65000000 -0.25000000  0.95000000       0.006
  -0.60000000 -0.20000000  0.90000000       0.006
  -0.55000000 -0.15000000  0.85000000       0.006
  -0.50000000 -0.10000000  0.80000000       0.006
  -0.45000000 -0.05000000  0.75000000       0.006
  -0.40000000 -0.00000000  0.70000000       0.003
  -0.70000000 -0.20000000  1.00000000       0.003
  -0.65000000 -0.15000000  0.95000000       0.006
  -0.60000000 -0.10000000  0.90000000       0.006
  -0.55000000 -0.05000000  0.85000000       0.006
  -0.50000000  0.00000000  0.80000000       0.003
  -0.70000000 -0.10000000  1.00000000       0.003
  -0.65000000 -0.05000000  0.95000000       0.006
  -0.60000000  0.00000000  0.90000000       0.003
  -0.70000000  0.00000000  1.00000000       0.002
  -0.60000000 -0.20000000  1.00000000       0.003
  -0.55000000 -0.15000000  0.95000000       0.006
  -0.50000000 -0.10000000  0.90000000       0.003
  -0.60000000 -0.10000000  1.00000000       0.003
  -0.55000000 -0.05000000  0.95000000       0.006
  -0.50000000  0.00000000  0.90000000       0.003
  -0.60000000  0.00000000  1.00000000       0.002
  -0.50000000  0.00000000  1.00000000       0.001

 k-points in reciprocal lattice and weights: Automatic mesh                          
   0.00000000  0.00000000  0.00000000       0.000
   0.05000000  0.00000000  0.00000000       0.001
   0.10000000  0.00000000  0.00000000       0.001
   0.15000000  0.00000000  0.00000000       0.001
   0.20000000  0.00000000  0.00000000       0.001
   0.25000000  0.00000000  0.00000000       0.001
   0.30000000  0.00000000  0.00000000       0.001
   0.35000000  0.00000000  0.00000000       0.001
   0.40000000  0.00000000  0.00000000       0.001
   0.45000000  0.00000000  0.00000000       0.001
   0.50000000  0.00000000  0.00000000       0.001
   0.05000000  0.05000000  0.00000000       0.001
   0.10000000  0.05000000  0.00000000       0.003
   0.15000000  0.05000000  0.00000000       0.003
   0.20000000  0.05000000  0.00000000       0.003
   0.25000000  0.05000000  0.00000000       0.003
   0.30000000  0.05000000  0.00000000       0.003
   0.35000000  0.05000000  0.00000000       0.003
   0.40000000  0.05000000  0.00000000       0.003
   0.45000000  0.05000000  0.00000000       0.003
   0.50000000  0.05000000  0.00000000       0.003
  -0.45000000  0.05000000  0.00000000       0.003
  -0.40000000  0.05000000  0.00000000       0.003
  -0.35000000  0.05000000  0.00000000       0.003
  -0.30000000  0.05000000  0.00000000       0.003
  -0.25000000  0.05000000  0.00000000       0.003
  -0.20000000  0.05000000  0.00000000       0.003
  -0.15000000  0.05000000  0.00000000       0.003
  -0.10000000  0.05000000  0.00000000       0.003
  -0.05000000  0.05000000  0.00000000       0.002
   0.10000000  0.10000000  0.00000000       0.001
   0.15000000  0.10000000  0.00000000       0.003
   0.20000000  0.10000000  0.00000000       0.003
   0.25000000  0.10000000  0.00000000       0.003
   0.30000000  0.10000000  0.00000000       0.003
   0.35000000  0.10000000  0.00000000       0.003
   0.40000000  0.10000000  0.00000000       0.003
   0.45000000  0.10000000  0.00000000       0.003
   0.50000000  0.10000000  0.00000000       0.003
  -0.45000000  0.10000000  0.00000000       0.003
  -0.40000000  0.10000000  0.00000000       0.003
  -0.35000000  0.10000000  0.00000000       0.003
  -0.30000000  0.10000000  0.00000000       0.003
  -0.25000000  0.10000000  0.00000000       0.003
  -0.20000000  0.10000000  0.00000000       0.003
  -0.15000000  0.10000000  0.00000000       0.003
  -0.10000000  0.10000000  0.00000000       0.002
   0.15000000  0.15000000  0.00000000       0.001
   0.20000000  0.15000000  0.00000000       0.003
   0.25000000  0.15000000  0.00000000       0.003
   0.30000000  0.15000000  0.00000000       0.003
   0.35000000  0.15000000  0.00000000       0.003
   0.40000000  0.15000000  0.00000000       0.003
   0.45000000  0.15000000  0.00000000       0.003
   0.50000000  0.15000000  0.00000000       0.003
  -0.45000000  0.15000000  0.00000000       0.003
  -0.40000000  0.15000000  0.00000000       0.003
  -0.35000000  0.15000000  0.00000000       0.003
  -0.30000000  0.15000000  0.00000000       0.003
  -0.25000000  0.15000000  0.00000000       0.003
  -0.20000000  0.15000000  0.00000000       0.003
  -0.15000000  0.15000000  0.00000000       0.002
   0.20000000  0.20000000  0.00000000       0.001
   0.25000000  0.20000000  0.00000000       0.003
   0.30000000  0.20000000  0.00000000       0.003
   0.35000000  0.20000000  0.00000000       0.003
   0.40000000  0.20000000  0.00000000       0.003
   0.45000000  0.20000000  0.00000000       0.003
   0.50000000  0.20000000  0.00000000       0.003
  -0.45000000  0.20000000  0.00000000       0.003
  -0.40000000  0.20000000  0.00000000       0.003
  -0.35000000  0.20000000  0.00000000       0.003
  -0.30000000  0.20000000  0.00000000       0.003
  -0.25000000  0.20000000  0.00000000       0.003
  -0.20000000  0.20000000  0.00000000       0.002
   0.25000000  0.25000000  0.00000000       0.001
   0.30000000  0.25000000  0.00000000       0.003
   0.35000000  0.25000000  0.00000000       0.003
   0.40000000  0.25000000  0.00000000       0.003
   0.45000000  0.25000000  0.00000000       0.003
   0.50000000  0.25000000  0.00000000       0.003
  -0.45000000  0.25000000  0.00000000       0.003
  -0.40000000  0.25000000  0.00000000       0.003
  -0.35000000  0.25000000  0.00000000       0.003
  -0.30000000  0.25000000  0.00000000       0.003
  -0.25000000  0.25000000  0.00000000       0.002
   0.30000000  0.30000000  0.00000000       0.001
   0.35000000  0.30000000  0.00000000       0.003
   0.40000000  0.30000000  0.00000000       0.003
   0.45000000  0.30000000  0.00000000       0.003
   0.50000000  0.30000000  0.00000000       0.003
  -0.45000000  0.30000000  0.00000000       0.003
  -0.40000000  0.30000000  0.00000000       0.003
  -0.35000000  0.30000000  0.00000000       0.003
  -0.30000000  0.30000000  0.00000000       0.002
   0.35000000  0.35000000  0.00000000       0.001
   0.40000000  0.35000000  0.00000000       0.003
   0.45000000  0.35000000  0.00000000       0.003
   0.50000000  0.35000000  0.00000000       0.003
  -0.45000000  0.35000000  0.00000000       0.003
  -0.40000000  0.35000000  0.00000000       0.003
  -0.35000000  0.35000000  0.00000000       0.002
   0.40000000  0.40000000  0.00000000       0.001
   0.45000000  0.40000000  0.00000000       0.003
   0.50000000  0.40000000  0.00000000       0.003
  -0.45000000  0.40000000  0.00000000       0.003
  -0.40000000  0.40000000  0.00000000       0.002
   0.45000000  0.45000000  0.00000000       0.001
   0.50000000  0.45000000  0.00000000       0.003
  -0.45000000  0.45000000  0.00000000       0.002
   0.50000000  0.50000000  0.00000000       0.000
   0.15000000  0.10000000  0.05000000       0.003
   0.20000000  0.10000000  0.05000000       0.006
   0.25000000  0.10000000  0.05000000       0.006
   0.30000000  0.10000000  0.05000000       0.006
   0.35000000  0.10000000  0.05000000       0.006
   0.40000000  0.10000000  0.05000000       0.006
   0.45000000  0.10000000  0.05000000       0.006
   0.50000000  0.10000000  0.05000000       0.006
  -0.45000000  0.10000000  0.05000000       0.003
   0.20000000  0.15000000  0.05000000       0.003
   0.25000000  0.15000000  0.05000000       0.006
   0.30000000  0.15000000  0.05000000       0.006
   0.35000000  0.15000000  0.05000000       0.006
   0.40000000  0.15000000  0.05000000       0.006
   0.45000000  0.15000000  0.05000000       0.006
   0.50000000  0.15000000  0.05000000       0.006
  -0.45000000  0.15000000  0.05000000       0.006
  -0.40000000  0.15000000  0.05000000       0.006
  -0.35000000  0.15000000  0.05000000       0.006
  -0.30000000  0.15000000  0.05000000       0.006
  -0.25000000  0.15000000  0.05000000       0.006
  -0.20000000  0.15000000  0.05000000       0.006
  -0.15000000  0.15000000  0.05000000       0.006
  -0.10000000  0.15000000  0.05000000       0.003
   0.25000000  0.20000000  0.05000000       0.003
   0.30000000  0.20000000  0.05000000       0.006
   0.35000000  0.20000000  0.05000000       0.006
   0.40000000  0.20000000  0.05000000       0.006
   0.45000000  0.20000000  0.05000000       0.006
   0.50000000  0.20000000  0.05000000       0.006
  -0.45000000  0.20000000  0.05000000       0.006
  -0.40000000  0.20000000  0.05000000       0.006
  -0.35000000  0.20000000  0.05000000       0.006
  -0.30000000  0.20000000  0.05000000       0.006
  -0.25000000  0.20000000  0.05000000       0.006
  -0.20000000  0.20000000  0.05000000       0.006
  -0.15000000  0.20000000  0.05000000       0.003
   0.30000000  0.25000000  0.05000000       0.003
   0.35000000  0.25000000  0.05000000       0.006
   0.40000000  0.25000000  0.05000000       0.006
   0.45000000  0.25000000  0.05000000       0.006
   0.50000000  0.25000000  0.05000000       0.006
  -0.45000000  0.25000000  0.05000000       0.006
  -0.40000000  0.25000000  0.05000000       0.006
  -0.35000000  0.25000000  0.05000000       0.006
  -0.30000000  0.25000000  0.05000000       0.006
  -0.25000000  0.25000000  0.05000000       0.006
  -0.20000000  0.25000000  0.05000000       0.003
   0.35000000  0.30000000  0.05000000       0.003
   0.40000000  0.30000000  0.05000000       0.006
   0.45000000  0.30000000  0.05000000       0.006
   0.50000000  0.30000000  0.05000000       0.006
  -0.45000000  0.30000000  0.05000000       0.006
  -0.40000000  0.30000000  0.05000000       0.006
  -0.35000000  0.30000000  0.05000000       0.006
  -0.30000000  0.30000000  0.05000000       0.006
  -0.25000000  0.30000000  0.05000000       0.003
   0.40000000  0.35000000  0.05000000       0.003
   0.45000000  0.35000000  0.05000000       0.006
   0.50000000  0.35000000  0.05000000       0.006
  -0.45000000  0.35000000  0.05000000       0.006
  -0.40000000  0.35000000  0.05000000       0.006
  -0.35000000  0.35000000  0.05000000       0.006
  -0.30000000  0.35000000  0.05000000       0.003
   0.45000000  0.40000000  0.05000000       0.003
   0.50000000  0.40000000  0.05000000       0.006
  -0.45000000  0.40000000  0.05000000       0.006
  -0.40000000  0.40000000  0.05000000       0.006
  -0.35000000  0.40000000  0.05000000       0.003
   0.50000000  0.45000000  0.05000000       0.003
  -0.45000000  0.45000000  0.05000000       0.006
  -0.40000000  0.45000000  0.05000000       0.003
  -0.45000000  0.50000000  0.05000000       0.002
   0.30000000  0.20000000  0.10000000       0.003
   0.35000000  0.20000000  0.10000000       0.006
   0.40000000  0.20000000  0.10000000       0.006
   0.45000000  0.20000000  0.10000000       0.006
   0.50000000  0.20000000  0.10000000       0.006
[...]

 k-point   221 :      -0.4000    0.4000    0.1000
  band No.  band energies     occupation 
      1      -2.5601      2.00000
      2      -1.2058      2.00000
      3       1.9107      2.00000
      4       2.8486      2.00000
      5       7.6670     -0.00000
      6       9.1129      0.00000
      7      12.1852      0.00000
      8      13.9739      0.00000

 k-point   222 :      -0.3500    0.4000    0.1000
  band No.  band energies     occupation 
      1      -2.3893      2.00000
      2      -1.3610      2.00000
      3       1.6297      2.00000
      4       2.9509      2.00000
      5       7.8054     -0.00000
      6      10.0306      0.00000
      7      12.0022      0.00000
      8      12.9407      0.00000

 k-point   223 :      -0.3000    0.4000    0.1000
  band No.  band energies     occupation 
      1      -2.5657      2.00000
      2      -1.1791      2.00000
      3       1.4946      2.00000
      4       3.1183      2.00000
      5       7.9957     -0.00000
      6      10.9411      0.00000
      7      11.7918      0.00000
      8      12.1149      0.00000

 k-point   224 :      -0.4500    0.4500    0.1000
  band No.  band energies     occupation 
      1      -2.6394      2.00000
      2      -1.1895      2.00000
      3       2.5428      2.00000
      4       2.7005      2.00000
      5       7.3041     -0.00000
      6       7.5919     -0.00000
      7      13.4381      0.00000
      8      15.0924      0.00000

 k-point   225 :      -0.4000    0.4500    0.1000
  band No.  band energies     occupation 
      1      -2.2624      2.00000
      2      -1.5443      2.00000
      3       2.1919      2.00000
      4       2.6774      2.00000
      5       7.4976     -0.00000
      6       8.1812     -0.00000
      7      13.2359      0.00000
      8      14.1452      0.00000

 k-point   226 :      -0.3500    0.4500    0.1000
  band No.  band energies     occupation 
      1      -2.1181      2.00000
      2      -1.6487      2.00000
      3       1.8406      2.00000
      4       2.7812      2.00000
      5       7.6247     -0.00000
      6       9.0545      0.00000
      7      12.9365      0.00000
      8      13.1813      0.00000

 k-point   227 :      -0.4000    0.5000    0.1000
  band No.  band energies     occupation 
      1      -1.9316      2.00000
      2      -1.9316      2.00000
      3       2.5701      2.00000
      4       2.5701      2.00000
      5       7.3937     -0.00000
      6       7.3937     -0.00000
      7      14.3284      0.00000
      8      14.3284      0.00000

 k-point   228 :       0.4500    0.3000    0.1500
  band No.  band energies     occupation 
      1      -4.2471      2.00000
      2       0.7034      2.00000
      3       2.5675      2.00000
      4       3.8927      2.00000
      5       8.4858     -0.00000
      6       9.6198      0.00000
      7       9.9986      0.00000
      8      12.2479      0.00000

 k-point   229 :       0.5000    0.3000    0.1500
  band No.  band energies     occupation 
      1      -3.8809      2.00000
      2       0.1802      2.00000
      3       2.2780      2.00000
      4       3.6707      2.00000
      5       8.7680      0.00000
      6       9.7102      0.00000
      7      10.0127      0.00000
      8      12.5656      0.00000

 k-point   230 :      -0.4500    0.3000    0.1500
  band No.  band energies     occupation 
      1      -3.5020      2.00000
      2      -0.3482      2.00000
      3       2.1089      2.00000
      4       3.4830      2.00000
      5       8.8971      0.00000
      6       9.5032      0.00000
      7      10.6687      0.00000
      8      12.6835      0.00000

 k-point   231 :      -0.4000    0.3000    0.1500
  band No.  band energies     occupation 
      1      -3.1732      2.00000
      2      -0.7812      2.00000
      3       2.0237      2.00000
      4       3.3589      2.00000
      5       8.9920      0.00000
      6       9.3071      0.00000
      7      11.5244      0.00000
      8      12.7123      0.00000

 k-point   232 :      -0.3500    0.3000    0.1500
  band No.  band energies     occupation 
      1      -3.0287      2.00000
      2      -0.9626      2.00000
      3       1.9980      2.00000
      4       3.3156      2.00000
      5       9.0717      0.00000
      6       9.1881      0.00000
      7      12.3219      0.00000
      8      12.7065      0.00000

 k-point   233 :       0.5000    0.3500    0.1500
  band No.  band energies     occupation 
      1      -3.7329      2.00000
      2       0.0876      2.00000
      3       2.3381      2.00000
      4       3.3173      2.00000
      5       8.3052     -0.00000
      6       9.1084      0.00000
      7      10.6416      0.00000
      8      13.2805      0.00000

 k-point   234 :      -0.4500    0.3500    0.1500
  band No.  band energies     occupation 
      1      -3.3540      2.00000
      2      -0.3685      2.00000
      3       2.0761      2.00000
      4       3.1112      2.00000
      5       8.5831     -0.00000
      6       9.5321      0.00000
      7      10.4378      0.00000
      8      13.6118      0.00000

 k-point   235 :      -0.4000    0.3500    0.1500
  band No.  band energies     occupation 
      1      -2.9950      2.00000
      2      -0.7891      2.00000
      3       1.8889      2.00000
      4       2.9877      2.00000
      5       8.7072      0.00000
      6      10.0143      0.00000
      7      10.5272      0.00000
      8      13.6551      0.00000

 k-point   236 :      -0.3500    0.3500    0.1500
  band No.  band energies     occupation 
      1      -2.7705      2.00000
      2      -1.0424      2.00000
      3       1.7681      2.00000
      4       2.9641      2.00000
      5       8.8338      0.00000
      6       9.9316      0.00000
      7      11.3442      0.00000
      8      12.6128      0.00000

 k-point   237 :      -0.3000    0.3500    0.1500
  band No.  band energies     occupation 
      1      -2.8376      2.00000
      2      -0.9648      2.00000
      3       1.7202      2.00000
      4       3.0377      2.00000
      5       8.9998      0.00000
      6       9.7922      0.00000
      7      11.5281      0.00000
      8      12.4461      0.00000

 k-point   238 :      -0.2500    0.3500    0.1500
  band No.  band energies     occupation 
      1      -3.1378      2.00000
      2      -0.6245      2.00000
      3       1.7676      2.00000
      4       3.1949      2.00000
      5       9.2079      0.00000
      6       9.6420      0.00000
      7      10.6950      0.00000
      8      13.4290      0.00000

 k-point   239 :      -0.2000    0.3500    0.1500
  band No.  band energies     occupation 
      1      -3.5113      2.00000
      2      -0.2074      2.00000
      3       1.9439      2.00000
      4       3.4155      2.00000
      5       9.3265      0.00000
      6       9.4515      0.00000
      7      10.1438      0.00000
      8      13.1846      0.00000

 k-point   240 :      -0.4500    0.4000    0.1500
  band No.  band energies     occupation 
      1      -3.1586      2.00000
      2      -0.5518      2.00000
      3       2.2060      2.00000
      4       2.8396      2.00000
      5       8.2005     -0.00000
      6       8.7131      0.00000
      7      11.3656      0.00000
      8      14.3132      0.00000

 k-point   241 :      -0.4000    0.4000    0.1500
  band No.  band energies     occupation 
      1      -2.7827      2.00000
      2      -0.9395      2.00000
      3       1.9654      2.00000
      4       2.6780      2.00000
      5       8.4568     -0.00000
      6       9.2850      0.00000
      7      11.1534      0.00000
      8      13.7844      0.00000

 k-point   242 :      -0.3500    0.4000    0.1500
  band No.  band energies     occupation 
      1      -2.4938      2.00000
      2      -1.2273      2.00000
      3       1.7459      2.00000
      4       2.6627      2.00000
      5       8.5887     -0.00000
      6      10.1119      0.00000
      7      11.0061      0.00000
      8      12.7032      0.00000

 k-point   243 :      -0.3000    0.4000    0.1500
  band No.  band energies     occupation 
      1      -2.4928      2.00000
      2      -1.2212      2.00000
      3       1.6085      2.00000
      4       2.7611      2.00000
      5       8.7526      0.00000
      6      10.5705      0.00000
      7      11.2991      0.00000
      8      11.7586      0.00000

 k-point   244 :      -0.2500    0.4000    0.1500
  band No.  band energies     occupation 
      1      -2.7731      2.00000
      2      -0.9464      2.00000
      3       1.6033      2.00000
      4       2.9456      2.00000
      5       8.9625      0.00000
      6      10.3306      0.00000
      7      10.9086      0.00000
      8      12.3904      0.00000

 k-point   245 :      -0.4000    0.4500    0.1500
  band No.  band energies     occupation 
      1      -2.5361      2.00000
      2      -1.2129      2.00000
      3       2.1804      2.00000
      4       2.4888      2.00000
      5       8.1814     -0.00000
      6       8.4309     -0.00000
      7      12.1630      0.00000
      8      13.9484      0.00000

 k-point   246 :      -0.3500    0.4500    0.1500
  band No.  band energies     occupation 
      1      -2.1977      2.00000
      2      -1.5208      2.00000
      3       1.9328      2.00000
      4       2.4292      2.00000
      5       8.3933     -0.00000
      6       9.1585      0.00000
      7      11.9576      0.00000
      8      12.8461      0.00000

 k-point   247 :      -0.3000    0.4500    0.1500
  band No.  band energies     occupation 
      1      -2.1898      2.00000
      2      -1.5058      2.00000
      3       1.6951      2.00000
      4       2.5510      2.00000
      5       8.5486     -0.00000
      6      10.0848      0.00000
      7      11.7131      0.00000
      8      11.8956      0.00000

 k-point   248 :      -0.3500    0.5000    0.1500
  band No.  band energies     occupation 
      1      -1.8810      2.00000
      2      -1.8810      2.00000
      3       2.2712      2.00000
      4       2.2712      2.00000
      5       8.2558     -0.00000
      6       8.2558     -0.00000
      7      13.0281      0.00000
      8      13.0281      0.00000

 k-point   249 :      -0.4000    0.4000    0.2000
  band No.  band energies     occupation 
      1      -2.9778      2.00000
      2      -0.7289      2.00000
      3       1.8521      2.00000
      4       2.8391      2.00000
      5       9.2267      0.00000
      6       9.6001      0.00000
      7      10.2684      0.00000
      8      13.6219      0.00000

 k-point   250 :      -0.3500    0.4000    0.2000
  band No.  band energies     occupation 
      1      -2.6327      2.00000
      2      -1.0712      2.00000
      3       1.7310      2.00000
      4       2.6538      2.00000
      5       9.4574      0.00000
      6       9.8354      0.00000
      7      10.5383      0.00000
      8      12.5223      0.00000

 k-point   251 :      -0.3000    0.4000    0.2000
  band No.  band energies     occupation 
      1      -2.4664      2.00000
      2      -1.2383      2.00000
      3       1.6943      2.00000
      4       2.5879      2.00000
      5       9.5005      0.00000
      6       9.8218      0.00000
      7      11.2319      0.00000
      8      11.6770      0.00000

 k-point   252 :      -0.3500    0.4500    0.2000
  band No.  band energies     occupation 
      1      -2.4132      2.00000
      2      -1.2721      2.00000
      3       1.8849      2.00000
      4       2.3760      2.00000
      5       9.2033      0.00000
      6       9.4051      0.00000
      7      10.9463      0.00000
      8      12.6599      0.00000

 k-point   253 :      -0.3000    0.4500    0.2000
  band No.  band energies     occupation 
      1      -2.1540      2.00000
      2      -1.5082      2.00000
      3       1.7963      2.00000
      4       2.2780      2.00000
      5       9.4152      0.00000
      6      10.1301      0.00000
      7      10.8453      0.00000
      8      11.6149      0.00000

 k-point   254 :      -0.2500    0.4500    0.2000
  band No.  band energies     occupation 
      1      -2.2912      2.00000
      2      -1.3733      2.00000
      3       1.7124      2.00000
      4       2.3996      2.00000
      5       9.5679      0.00000
      6      10.2630      0.00000
      7      10.7318      0.00000
      8      11.4896      0.00000

 k-point   255 :      -0.3000    0.5000    0.2000
  band No.  band energies     occupation 
      1      -1.8378      2.00000
      2      -1.8378      2.00000
      3       2.0564      2.00000
      4       2.0564      2.00000
      5       9.2623      0.00000
      6       9.2623      0.00000
      7      11.7601      0.00000
      8      11.7601      0.00000

 k-point   256 :      -0.2500    0.5000    0.2500
  band No.  band energies     occupation 
      1      -1.8207      2.00000
      2      -1.8207      2.00000
      3       1.9789      2.00000
      4       1.9789      2.00000
      5      10.0985      0.00000
      6      10.0985      0.00000
      7      10.8375      0.00000
      8      10.8375      0.00000


--------------------------------------------------------------------------------------------------------


 soft charge-density along one line, spin component           1
         0         1         2         3         4         5         6         7         8         9
 total charge-density along one line

 pseudopotential strength for first ion, spin component:           1
 18.413  25.689  -0.000  -0.000  -0.000  -0.000  -0.000  -0.000
 25.689  35.846  -0.000  -0.000  -0.000  -0.000  -0.000  -0.000
 -0.000  -0.000   4.178  -0.000  -0.000   7.786  -0.000  -0.000
 -0.000  -0.000  -0.000   4.178  -0.000  -0.000   7.786  -0.000
 -0.000  -0.000  -0.000  -0.000   4.178  -0.000  -0.000   7.786
 -0.000  -0.000   7.786  -0.000  -0.000  14.519  -0.000  -0.000
 -0.000  -0.000  -0.000   7.786  -0.000  -0.000  14.519  -0.000
 -0.000  -0.000  -0.000  -0.000   7.786  -0.000  -0.000  14.519
 total augmentation occupancy for first ion, spin component:           1
  5.710  -2.164  -0.000  -0.000  -0.000  -0.000   0.000  -0.000
 -2.164   0.936  -0.000   0.000  -0.000  -0.000  -0.000   0.000
  0.000  -0.000   2.981   0.000  -0.000  -0.672  -0.000   0.000
 -0.000  -0.000  -0.000   2.981   0.000  -0.000  -0.672  -0.000
 -0.000   0.000   0.000   0.000   2.981   0.000   0.000  -0.672
 -0.000   0.000  -0.672   0.000   0.000   0.160   0.000   0.000
 -0.000   0.000  -0.000  -0.672  -0.000  -0.000   0.160   0.000
 -0.000  -0.000   0.000   0.000  -0.672  -0.000   0.000   0.160


------------------------ aborting loop because EDIFF is reached ----------------------------------------


    CHARGE:  cpu time    0.7884: real time    0.7917
    FORLOC:  cpu time    0.0081: real time    0.0081
    FORNL :  cpu time    0.6418: real time    0.6491
    STRESS:  cpu time    2.2663: real time    2.2710
    FORCOR:  cpu time    0.1715: real time    0.1718
    FORHAR:  cpu time    0.0466: real time    0.0470
    MIXING:  cpu time    0.0053: real time    0.0053
    OFIELD:  cpu time    0.0000: real time    0.0000

  FORCE on cell =-STRESS in cart. coord.  units (eV):
  Direction    XX          YY          ZZ          XY          YZ          ZX
  --------------------------------------------------------------------------------------
  Alpha Z     3.36415     3.36415     3.36415
  Ewald     -76.18788   -76.18788   -76.18788    -0.00000     0.00000    -0.00000
  Hartree     4.97209     4.97209     4.97209     0.00000     0.00000     0.00000
  E(xc)     -25.36895   -25.36895   -25.36895     0.00000     0.00000     0.00000
  Local     -29.22259   -29.22259   -29.22259     0.00001     0.00001     0.00001
  n-local    80.33204    74.50657    78.73073    -1.33805     0.50585     2.27610
  augment   -11.65615   -11.65615   -11.65615    -0.00001    -0.00001    -0.00001
  Kinetic    56.04106    55.14006    59.02481    -0.65780     1.06467     3.57266
  Fock        0.00000     0.00000     0.00000     0.00000     0.00000     0.00000
  -------------------------------------------------------------------------------------
  Total       0.49242     0.49242     0.49242     0.00000     0.00000     0.00000
  in kB      19.71072    19.71072    19.71072     0.00000     0.00000     0.00000
  external pressure =       19.71 kB  Pullay stress =        0.00 kB


 VOLUME and BASIS-vectors are now :
 -----------------------------------------------------------------------------
  energy-cutoff  :      400.00
  volume of cell :       40.03
      direct lattice vectors                 reciprocal lattice vectors
     2.715000000  2.715000000  0.000000000     0.184162063  0.184162063 -0.184162063
     0.000000000  2.715000000  2.715000000    -0.184162063  0.184162063  0.184162063
     2.715000000  0.000000000  2.715000000     0.184162063 -0.184162063  0.184162063

  length of vectors
     3.839589822  3.839589822  3.839589822     0.318978049  0.318978049  0.318978049


 FORCES acting on ions
    electron-ion (+dipol)            ewald-force                    non-local-force                 convergence-correction
 -----------------------------------------------------------------------------------------------
   0.738E-08 0.394E-08 0.738E-08   -.284E-14 0.137E-14 0.154E-14   0.694E-17 0.000E+00 0.000E+00   -.254E-09 -.254E-09 -.254E-09
   -.738E-08 -.394E-08 -.738E-08   0.326E-14 -.119E-14 -.180E-14   0.208E-16 -.694E-17 0.208E-16   0.254E-09 0.254E-09 0.254E-09
 -----------------------------------------------------------------------------------------------
   0.371E-13 -.433E-14 0.102E-12   0.417E-15 0.181E-15 -.254E-15   0.278E-16 -.694E-17 0.208E-16   -.271E-14 0.241E-15 -.259E-15


 POSITION                                       TOTAL-FORCE (eV/Angst)
 -----------------------------------------------------------------------------------
      0.00000      0.00000      0.00000        -0.000000     -0.000000     -0.000000
      1.35750      1.35750      1.35750         0.000000      0.000000      0.000000
 -----------------------------------------------------------------------------------
    total drift:                                0.000000     -0.000000      0.000000


--------------------------------------------------------------------------------------------------------



  FREE ENERGIE OF THE ION-ELECTRON SYSTEM (eV)
  ---------------------------------------------------
  free  energy   TOTEN  =       -10.84442189 eV

  energy  without entropy=      -10.84447033  energy(sigma->0) =      -10.84443803



--------------------------------------------------------------------------------------------------------


    POTLOK:  cpu time    0.1736: real time    0.1740


--------------------------------------------------------------------------------------------------------


 writing wavefunctions
     LOOP+:  cpu time   72.3162: real time   72.4430
    4ORBIT:  cpu time    0.0001: real time    0.0007

 total amount of memory used by VASP on root node    82883. kBytes
========================================================================

   base      :      30000. kBytes
   nonl-proj :      12229. kBytes
   fftplans  :       6192. kBytes
   grid      :       9520. kBytes
   one-center:          6. kBytes
   wavefun   :      24936. kBytes

  
  
 General timing and accounting informations for this job:
 ========================================================
  
                  Total CPU time used (sec):       74.740
                            User time (sec):       74.604
                          System time (sec):        0.136
                         Elapsed time (sec):       74.890
  
                   Maximum memory used (kb):       85536.
                   Average memory used (kb):           0.
  
                          Minor page faults:        46141
                          Major page faults:           73
                 Voluntary context switches:          128
