<?xml version="1.0" encoding="ISO-8859-1"?>
<modeling>
 <generator>
  <i name="program" type="string">vasp </i>
  <i name="version" type="string">5.4.1  </i>
  <i name="subversion" type="string">24Jun15 (build Mar  6 2017 20:45:23) complex                          parallel </i>
  <i name="platform" type="string">IFC91_ompi </i>
  <i name="date" type="string">2017 11 01 </i>
  <i name="time" type="string">19:13:09 </i>
 </generator>
 <incar>
  <i type="string" name="SYSTEM">Si2</i>
  <i type="string" name="PREC">accurate</i>
  <i type="int" name="IBRION">    -1</i>
  <i name="EDIFF">      0.00000100</i>
  <i type="int" name="NSW">     0</i>
  <i type="int" name="ISIF">     3</i>
  <i name="ENCUT">    400.00000000</i>
  <i type="int" name="ISMEAR">     1</i>
  <i name="SIGMA">      0.10000000</i>
  <i type="int" name="NWRITE">     3</i>
  <i type="logical" name="LWAVE"> T  </i>
  <i type="logical" name="LCHARG"> T  </i>
  <i type="logical" name="LAECHG"> T  </i>
  <v type="int" name="KPOINT_BSE">    -1     0     0     0</v>
 </incar>
 <kpoints>
  <generation param="Gamma">
   <v type="int" name="divisions">      20       20       20 </v>
   <v name="usershift">      0.00000000       0.00000000       0.00000000 </v>
   <v name="genvec1">      0.05000000       0.00000000       0.00000000 </v>
   <v name="genvec2">      0.00000000       0.05000000       0.00000000 </v>
   <v name="genvec3">      0.00000000       0.00000000       0.05000000 </v>
   <v name="shift">      0.00000000       0.00000000       0.00000000 </v>
  </generation>
  <varray name="kpointlist" >
   <v>       0.00000000       0.00000000       0.00000000 </v>
   <v>       0.05000000       0.00000000       0.00000000 </v>
   <v>       0.10000000       0.00000000       0.00000000 </v>
   <v>       0.15000000       0.00000000       0.00000000 </v>
   <v>       0.20000000       0.00000000       0.00000000 </v>
   <v>       0.25000000       0.00000000       0.00000000 </v>
   <v>       0.30000000       0.00000000       0.00000000 </v>
   <v>       0.35000000       0.00000000       0.00000000 </v>
   <v>       0.40000000       0.00000000       0.00000000 </v>
   <v>       0.45000000       0.00000000       0.00000000 </v>
   <v>       0.50000000       0.00000000       0.00000000 </v>
   <v>       0.05000000       0.05000000       0.00000000 </v>
   <v>       0.10000000       0.05000000       0.00000000 </v>
   <v>       0.15000000       0.05000000       0.00000000 </v>
   <v>       0.20000000       0.05000000       0.00000000 </v>
   <v>       0.25000000       0.05000000       0.00000000 </v>
   <v>       0.30000000       0.05000000       0.00000000 </v>
   <v>       0.35000000       0.05000000       0.00000000 </v>
   <v>       0.40000000       0.05000000       0.00000000 </v>
   <v>       0.45000000       0.05000000       0.00000000 </v>
   <v>       0.50000000       0.05000000       0.00000000 </v>
   <v>      -0.45000000       0.05000000       0.00000000 </v>
   <v>      -0.40000000       0.05000000       0.00000000 </v>
   <v>      -0.35000000       0.05000000       0.00000000 </v>
   <v>      -0.30000000       0.05000000       0.00000000 </v>
   <v>      -0.25000000       0.05000000       0.00000000 </v>
   <v>      -0.20000000       0.05000000       0.00000000 </v>
   <v>      -0.15000000       0.05000000       0.00000000 </v>
   <v>      -0.10000000       0.05000000       0.00000000 </v>
   <v>      -0.05000000       0.05000000       0.00000000 </v>
   <v>       0.10000000       0.10000000       0.00000000 </v>
   <v>       0.15000000       0.10000000       0.00000000 </v>
   <v>       0.20000000       0.10000000       0.00000000 </v>
   <v>       0.25000000       0.10000000       0.00000000 </v>
   <v>       0.30000000       0.10000000       0.00000000 </v>
   <v>       0.35000000       0.10000000       0.00000000 </v>
   <v>       0.40000000       0.10000000       0.00000000 </v>
   <v>       0.45000000       0.10000000       0.00000000 </v>
   <v>       0.50000000       0.10000000       0.00000000 </v>
   <v>      -0.45000000       0.10000000       0.00000000 </v>
   <v>      -0.40000000       0.10000000       0.00000000 </v>
   <v>      -0.35000000       0.10000000       0.00000000 </v>
   <v>      -0.30000000       0.10000000       0.00000000 </v>
   <v>      -0.25000000       0.10000000       0.00000000 </v>
   <v>      -0.20000000       0.10000000       0.00000000 </v>
   <v>      -0.15000000       0.10000000       0.00000000 </v>
   <v>      -0.10000000       0.10000000       0.00000000 </v>
   <v>       0.15000000       0.15000000       0.00000000 </v>
   <v>       0.20000000       0.15000000       0.00000000 </v>
   <v>       0.25000000       0.15000000       0.00000000 </v>
   <v>       0.30000000       0.15000000       0.00000000 </v>
   <v>       0.35000000       0.15000000       0.00000000 </v>
   <v>       0.40000000       0.15000000       0.00000000 </v>
   <v>       0.45000000       0.15000000       0.00000000 </v>
   <v>       0.50000000       0.15000000       0.00000000 </v>
   <v>      -0.45000000       0.15000000       0.00000000 </v>
   <v>      -0.40000000       0.15000000       0.00000000 </v>
   <v>      -0.35000000       0.15000000       0.00000000 </v>
   <v>      -0.30000000       0.15000000       0.00000000 </v>
   <v>      -0.25000000       0.15000000       0.00000000 </v>
   <v>      -0.20000000       0.15000000       0.00000000 </v>
   <v>      -0.15000000       0.15000000       0.00000000 </v>
   <v>       0.20000000       0.20000000       0.00000000 </v>
   <v>       0.25000000       0.20000000       0.00000000 </v>
   <v>       0.30000000       0.20000000       0.00000000 </v>
   <v>       0.35000000       0.20000000       0.00000000 </v>
   <v>       0.40000000       0.20000000       0.00000000 </v>
   <v>       0.45000000       0.20000000       0.00000000 </v>
   <v>       0.50000000       0.20000000       0.00000000 </v>
   <v>      -0.45000000       0.20000000       0.00000000 </v>
   <v>      -0.40000000       0.20000000       0.00000000 </v>
   <v>      -0.35000000       0.20000000       0.00000000 </v>
   <v>      -0.30000000       0.20000000       0.00000000 </v>
   <v>      -0.25000000       0.20000000       0.00000000 </v>
   <v>      -0.20000000       0.20000000       0.00000000 </v>
   <v>       0.25000000       0.25000000       0.00000000 </v>
   <v>       0.30000000       0.25000000       0.00000000 </v>
   <v>       0.35000000       0.25000000       0.00000000 </v>
   <v>       0.40000000       0.25000000       0.00000000 </v>
   <v>       0.45000000       0.25000000       0.00000000 </v>
   <v>       0.50000000       0.25000000       0.00000000 </v>
   <v>      -0.45000000       0.25000000       0.00000000 </v>
   <v>      -0.40000000       0.25000000       0.00000000 </v>
   <v>      -0.35000000       0.25000000       0.00000000 </v>
   <v>      -0.30000000       0.25000000       0.00000000 </v>
   <v>      -0.25000000       0.25000000       0.00000000 </v>
   <v>       0.30000000       0.30000000       0.00000000 </v>
   <v>       0.35000000       0.30000000       0.00000000 </v>
   <v>       0.40000000       0.30000000       0.00000000 </v>
   <v>       0.45000000       0.30000000       0.00000000 </v>
   <v>       0.50000000       0.30000000       0.00000000 </v>
   <v>      -0.45000000       0.30000000       0.00000000 </v>
   <v>      -0.40000000       0.30000000       0.00000000 </v>
   <v>      -0.35000000       0.30000000       0.00000000 </v>
   <v>      -0.30000000       0.30000000       0.00000000 </v>
   <v>       0.35000000       0.35000000       0.00000000 </v>
   <v>       0.40000000       0.35000000       0.00000000 </v>
   <v>       0.45000000       0.35000000       0.00000000 </v>
   <v>       0.50000000       0.35000000       0.00000000 </v>
   <v>      -0.45000000       0.35000000       0.00000000 </v>
   <v>      -0.40000000       0.35000000       0.00000000 </v>
   <v>      -0.35000000       0.35000000       0.00000000 </v>
   <v>       0.40000000       0.40000000       0.00000000 </v>
   <v>       0.45000000       0.40000000       0.00000000 </v>
   <v>       0.50000000       0.40000000       0.00000000 </v>
   <v>      -0.45000000       0.40000000       0.00000000 </v>
   <v>      -0.40000000       0.40000000       0.00000000 </v>
   <v>       0.45000000       0.45000000       0.00000000 </v>
   <v>       0.50000000       0.45000000       0.00000000 </v>
   <v>      -0.45000000       0.45000000       0.00000000 </v>
   <v>       0.50000000       0.50000000       0.00000000 </v>
   <v>       0.15000000       0.10000000       0.05000000 </v>
   <v>       0.20000000       0.10000000       0.05000000 </v>
   <v>       0.25000000       0.10000000       0.05000000 </v>
   <v>       0.30000000       0.10000000       0.05000000 </v>
   <v>       0.35000000       0.10000000       0.05000000 </v>
   <v>       0.40000000       0.10000000       0.05000000 </v>
   <v>       0.45000000       0.10000000       0.05000000 </v>
   <v>       0.50000000       0.10000000       0.05000000 </v>
   <v>      -0.45000000       0.10000000       0.05000000 </v>
   <v>       0.20000000       0.15000000       0.05000000 </v>
   <v>       0.25000000       0.15000000       0.05000000 </v>
   <v>       0.30000000       0.15000000       0.05000000 </v>
   <v>       0.35000000       0.15000000       0.05000000 </v>
   <v>       0.40000000       0.15000000       0.05000000 </v>
   <v>       0.45000000       0.15000000       0.05000000 </v>
   <v>       0.50000000       0.15000000       0.05000000 </v>
   <v>      -0.45000000       0.15000000       0.05000000 </v>
   <v>      -0.40000000       0.15000000       0.05000000 </v>
   <v>      -0.35000000       0.15000000       0.05000000 </v>
   <v>      -0.30000000       0.15000000       0.05000000 </v>
   <v>      -0.25000000       0.15000000       0.05000000 </v>
   <v>      -0.20000000       0.15000000       0.05000000 </v>
   <v>      -0.15000000       0.15000000       0.05000000 </v>
   <v>      -0.10000000       0.15000000       0.05000000 </v>
   <v>       0.25000000       0.20000000       0.05000000 </v>
   <v>       0.30000000       0.20000000       0.05000000 </v>
   <v>       0.35000000       0.20000000       0.05000000 </v>
   <v>       0.40000000       0.20000000       0.05000000 </v>
   <v>       0.45000000       0.20000000       0.05000000 </v>
   <v>       0.50000000       0.20000000       0.05000000 </v>
   <v>      -0.45000000       0.20000000       0.05000000 </v>
   <v>      -0.40000000       0.20000000       0.05000000 </v>
   <v>      -0.35000000       0.20000000       0.05000000 </v>
   <v>      -0.30000000       0.20000000       0.05000000 </v>
   <v>      -0.25000000       0.20000000       0.05000000 </v>
   <v>      -0.20000000       0.20000000       0.05000000 </v>
   <v>      -0.15000000       0.20000000       0.05000000 </v>
   <v>       0.30000000       0.25000000       0.05000000 </v>
   <v>       0.35000000       0.25000000       0.05000000 </v>
   <v>       0.40000000       0.25000000       0.05000000 </v>
   <v>       0.45000000       0.25000000       0.05000000 </v>
   <v>       0.50000000       0.25000000       0.05000000 </v>
   <v>      -0.45000000       0.25000000       0.05000000 </v>
   <v>      -0.40000000       0.25000000       0.05000000 </v>
   <v>      -0.35000000       0.25000000       0.05000000 </v>
   <v>      -0.30000000       0.25000000       0.05000000 </v>
   <v>      -0.25000000       0.25000000       0.05000000 </v>
   <v>      -0.20000000       0.25000000       0.05000000 </v>
   <v>       0.35000000       0.30000000       0.05000000 </v>
   <v>       0.40000000       0.30000000       0.05000000 </v>
   <v>       0.45000000       0.30000000       0.05000000 </v>
   <v>       0.50000000       0.30000000       0.05000000 </v>
   <v>      -0.45000000       0.30000000       0.05000000 </v>
   <v>      -0.40000000       0.30000000       0.05000000 </v>
   <v>      -0.35000000       0.30000000       0.05000000 </v>
   <v>      -0.30000000       0.30000000       0.05000000 </v>
   <v>      -0.25000000       0.30000000       0.05000000 </v>
   <v>       0.40000000       0.35000000       0.05000000 </v>
   <v>       0.45000000       0.35000000       0.05000000 </v>
   <v>       0.50000000       0.35000000       0.05000000 </v>
   <v>      -0.45000000       0.35000000       0.05000000 </v>
   <v>      -0.40000000       0.35000000       0.05000000 </v>
   <v>      -0.35000000       0.35000000       0.05000000 </v>
   <v>      -0.30000000       0.35000000       0.05000000 </v>
   <v>       0.45000000       0.40000000       0.05000000 </v>
   <v>       0.50000000       0.40000000       0.05000000 </v>
   <v>      -0.45000000       0.40000000       0.05000000 </v>
   <v>      -0.40000000       0.40000000       0.05000000 </v>
   <v>      -0.35000000       0.40000000       0.05000000 </v>
   <v>       0.50000000       0.45000000       0.05000000 </v>
   <v>      -0.45000000       0.45000000       0.05000000 </v>
   <v>      -0.40000000       0.45000000       0.05000000 </v>
   <v>      -0.45000000       0.50000000       0.05000000 </v>
   <v>       0.30000000       0.20000000       0.10000000 </v>
   <v>       0.35000000       0.20000000       0.10000000 </v>
   <v>       0.40000000       0.20000000       0.10000000 </v>
   <v>       0.45000000       0.20000000       0.10000000 </v>
   <v>       0.50000000       0.20000000       0.10000000 </v>
   <v>      -0.45000000       0.20000000       0.10000000 </v>
   <v>      -0.40000000       0.20000000       0.10000000 </v>
   <v>       0.35000000       0.25000000       0.10000000 </v>
   <v>       0.40000000       0.25000000       0.10000000 </v>
   <v>       0.45000000       0.25000000       0.10000000 </v>
   <v>       0.50000000       0.25000000       0.10000000 </v>
   <v>      -0.45000000       0.25000000       0.10000000 </v>
   <v>      -0.40000000       0.25000000       0.10000000 </v>
   <v>      -0.35000000       0.25000000       0.10000000 </v>
   <v>      -0.30000000       0.25000000       0.10000000 </v>
   <v>      -0.25000000       0.25000000       0.10000000 </v>
   <v>      -0.20000000       0.25000000       0.10000000 </v>
   <v>      -0.15000000       0.25000000       0.10000000 </v>
   <v>       0.40000000       0.30000000       0.10000000 </v>
   <v>       0.45000000       0.30000000       0.10000000 </v>
   <v>       0.50000000       0.30000000       0.10000000 </v>
   <v>      -0.45000000       0.30000000       0.10000000 </v>
   <v>      -0.40000000       0.30000000       0.10000000 </v>
   <v>      -0.35000000       0.30000000       0.10000000 </v>
   <v>      -0.30000000       0.30000000       0.10000000 </v>
   <v>      -0.25000000       0.30000000       0.10000000 </v>
   <v>      -0.20000000       0.30000000       0.10000000 </v>
   <v>       0.45000000       0.35000000       0.10000000 </v>
   <v>       0.50000000       0.35000000       0.10000000 </v>
   <v>      -0.45000000       0.35000000       0.10000000 </v>
   <v>      -0.40000000       0.35000000       0.10000000 </v>
   <v>      -0.35000000       0.35000000       0.10000000 </v>
   <v>      -0.30000000       0.35000000       0.10000000 </v>
   <v>      -0.25000000       0.35000000       0.10000000 </v>
   <v>       0.50000000       0.40000000       0.10000000 </v>
   <v>      -0.45000000       0.40000000       0.10000000 </v>
   <v>      -0.40000000       0.40000000       0.10000000 </v>
   <v>      -0.35000000       0.40000000       0.10000000 </v>
   <v>      -0.30000000       0.40000000       0.10000000 </v>
   <v>      -0.45000000       0.45000000       0.10000000 </v>
   <v>      -0.40000000       0.45000000       0.10000000 </v>
   <v>      -0.35000000       0.45000000       0.10000000 </v>
   <v>      -0.40000000       0.50000000       0.10000000 </v>
   <v>       0.45000000       0.30000000       0.15000000 </v>
   <v>       0.50000000       0.30000000       0.15000000 </v>
   <v>      -0.45000000       0.30000000       0.15000000 </v>
   <v>      -0.40000000       0.30000000       0.15000000 </v>
   <v>      -0.35000000       0.30000000       0.15000000 </v>
   <v>       0.50000000       0.35000000       0.15000000 </v>
   <v>      -0.45000000       0.35000000       0.15000000 </v>
   <v>      -0.40000000       0.35000000       0.15000000 </v>
   <v>      -0.35000000       0.35000000       0.15000000 </v>
   <v>      -0.30000000       0.35000000       0.15000000 </v>
   <v>      -0.25000000       0.35000000       0.15000000 </v>
   <v>      -0.20000000       0.35000000       0.15000000 </v>
   <v>      -0.45000000       0.40000000       0.15000000 </v>
   <v>      -0.40000000       0.40000000       0.15000000 </v>
   <v>      -0.35000000       0.40000000       0.15000000 </v>
   <v>      -0.30000000       0.40000000       0.15000000 </v>
   <v>      -0.25000000       0.40000000       0.15000000 </v>
   <v>      -0.40000000       0.45000000       0.15000000 </v>
   <v>      -0.35000000       0.45000000       0.15000000 </v>
   <v>      -0.30000000       0.45000000       0.15000000 </v>
   <v>      -0.35000000       0.50000000       0.15000000 </v>
   <v>      -0.40000000       0.40000000       0.20000000 </v>
   <v>      -0.35000000       0.40000000       0.20000000 </v>
   <v>      -0.30000000       0.40000000       0.20000000 </v>
   <v>      -0.35000000       0.45000000       0.20000000 </v>
   <v>      -0.30000000       0.45000000       0.20000000 </v>
   <v>      -0.25000000       0.45000000       0.20000000 </v>
   <v>      -0.30000000       0.50000000       0.20000000 </v>
   <v>      -0.25000000       0.50000000       0.25000000 </v>
  </varray>
  <varray name="weights" >
   <v>       0.00012500 </v>
   <v>       0.00100000 </v>
   <v>       0.00100000 </v>
   <v>       0.00100000 </v>
   <v>       0.00100000 </v>
   <v>       0.00100000 </v>
   <v>       0.00100000 </v>
   <v>       0.00100000 </v>
   <v>       0.00100000 </v>
   <v>       0.00100000 </v>
   <v>       0.00050000 </v>
   <v>       0.00075000 </v>
   <v>       0.00300000 </v>
   <v>       0.00300000 </v>
   <v>       0.00300000 </v>
   <v>       0.00300000 </v>
   <v>       0.00300000 </v>
   <v>       0.00300000 </v>
   <v>       0.00300000 </v>
   <v>       0.00300000 </v>
   <v>       0.00300000 </v>
   <v>       0.00300000 </v>
   <v>       0.00300000 </v>
   <v>       0.00300000 </v>
   <v>       0.00300000 </v>
   <v>       0.00300000 </v>
   <v>       0.00300000 </v>
   <v>       0.00300000 </v>
   <v>       0.00300000 </v>
   <v>       0.00150000 </v>
   <v>       0.00075000 </v>
   <v>       0.00300000 </v>
   <v>       0.00300000 </v>
   <v>       0.00300000 </v>
   <v>       0.00300000 </v>
   <v>       0.00300000 </v>
   <v>       0.00300000 </v>
   <v>       0.00300000 </v>
   <v>       0.00300000 </v>
   <v>       0.00300000 </v>
   <v>       0.00300000 </v>
   <v>       0.00300000 </v>
   <v>       0.00300000 </v>
   <v>       0.00300000 </v>
   <v>       0.00300000 </v>
   <v>       0.00300000 </v>
   <v>       0.00150000 </v>
   <v>       0.00075000 </v>
   <v>       0.00300000 </v>
   <v>       0.00300000 </v>
   <v>       0.00300000 </v>
   <v>       0.00300000 </v>
   <v>       0.00300000 </v>
   <v>       0.00300000 </v>
   <v>       0.00300000 </v>
   <v>       0.00300000 </v>
   <v>       0.00300000 </v>
   <v>       0.00300000 </v>
   <v>       0.00300000 </v>
   <v>       0.00300000 </v>
   <v>       0.00300000 </v>
   <v>       0.00150000 </v>
   <v>       0.00075000 </v>
   <v>       0.00300000 </v>
   <v>       0.00300000 </v>
   <v>       0.00300000 </v>
   <v>       0.00300000 </v>
   <v>       0.00300000 </v>
   <v>       0.00300000 </v>
   <v>       0.00300000 </v>
   <v>       0.00300000 </v>
   <v>       0.00300000 </v>
   <v>       0.00300000 </v>
   <v>       0.00300000 </v>
   <v>       0.00150000 </v>
   <v>       0.00075000 </v>
   <v>       0.00300000 </v>
   <v>       0.00300000 </v>
   <v>       0.00300000 </v>
   <v>       0.00300000 </v>
   <v>       0.00300000 </v>
   <v>       0.00300000 </v>
   <v>       0.00300000 </v>
   <v>       0.00300000 </v>
   <v>       0.00300000 </v>
   <v>       0.00150000 </v>
   <v>       0.00075000 </v>
   <v>       0.00300000 </v>
   <v>       0.00300000 </v>
   <v>       0.00300000 </v>
   <v>       0.00300000 </v>
   <v>       0.00300000 </v>
   <v>       0.00300000 </v>
   <v>       0.00300000 </v>
   <v>       0.00150000 </v>
   <v>       0.00075000 </v>
   <v>       0.00300000 </v>
   <v>       0.00300000 </v>
   <v>       0.00300000 </v>
   <v>       0.00300000 </v>
   <v>       0.00300000 </v>
   <v>       0.00150000 </v>
   <v>       0.00075000 </v>
   <v>       0.00300000 </v>
   <v>       0.00300000 </v>
   <v>       0.00300000 </v>
   <v>       0.00150000 </v>
   <v>       0.00075000 </v>
   <v>       0.00300000 </v>
   <v>       0.00150000 </v>
   <v>       0.00037500 </v>
   <v>       0.00300000 </v>
   <v>       0.00600000 </v>
   <v>       0.00600000 </v>
   <v>       0.00600000 </v>
   <v>       0.00600000 </v>
   <v>       0.00600000 </v>
   <v>       0.00600000 </v>
   <v>       0.00600000 </v>
   <v>       0.00300000 </v>
   <v>       0.00300000 </v>
   <v>       0.00600000 </v>
   <v>       0.00600000 </v>
   <v>       0.00600000 </v>
   <v>       0.00600000 </v>
   <v>       0.00600000 </v>
   <v>       0.00600000 </v>
   <v>       0.00600000 </v>
   <v>       0.00600000 </v>
   <v>       0.00600000 </v>
   <v>       0.00600000 </v>
   <v>       0.00600000 </v>
   <v>       0.00600000 </v>
   <v>       0.00600000 </v>
   <v>       0.00300000 </v>
   <v>       0.00300000 </v>
   <v>       0.00600000 </v>
   <v>       0.00600000 </v>
   <v>       0.00600000 </v>
   <v>       0.00600000 </v>
   <v>       0.00600000 </v>
   <v>       0.00600000 </v>
   <v>       0.00600000 </v>
   <v>       0.00600000 </v>
   <v>       0.00600000 </v>
   <v>       0.00600000 </v>
   <v>       0.00600000 </v>
   <v>       0.00300000 </v>
   <v>       0.00300000 </v>
   <v>       0.00600000 </v>
   <v>       0.00600000 </v>
   <v>       0.00600000 </v>
   <v>       0.00600000 </v>
   <v>       0.00600000 </v>
   <v>       0.00600000 </v>
   <v>       0.00600000 </v>
   <v>       0.00600000 </v>
   <v>       0.00600000 </v>
   <v>       0.00300000 </v>
   <v>       0.00300000 </v>
   <v>       0.00600000 </v>
   <v>       0.00600000 </v>
   <v>       0.00600000 </v>
   <v>       0.00600000 </v>
   <v>       0.00600000 </v>
   <v>       0.00600000 </v>
   <v>       0.00600000 </v>
   <v>       0.00300000 </v>
   <v>       0.00300000 </v>
   <v>       0.00600000 </v>
   <v>       0.00600000 </v>
   <v>       0.00600000 </v>
   <v>       0.00600000 </v>
   <v>       0.00600000 </v>
   <v>       0.00300000 </v>
   <v>       0.00300000 </v>
   <v>       0.00600000 </v>
   <v>       0.00600000 </v>
   <v>       0.00600000 </v>
   <v>       0.00300000 </v>
   <v>       0.00300000 </v>
   <v>       0.00600000 </v>
   <v>       0.00300000 </v>
   <v>       0.00150000 </v>
   <v>       0.00300000 </v>
   <v>       0.00600000 </v>
   <v>       0.00600000 </v>
   <v>       0.00600000 </v>
   <v>       0.00600000 </v>
   <v>       0.00600000 </v>
   <v>       0.00300000 </v>
   <v>       0.00300000 </v>
   <v>       0.00600000 </v>
   <v>       0.00600000 </v>
   <v>       0.00600000 </v>
   <v>       0.00600000 </v>
   <v>       0.00600000 </v>
   <v>       0.00600000 </v>
   <v>       0.00600000 </v>
   <v>       0.00600000 </v>
   <v>       0.00600000 </v>
   <v>       0.00300000 </v>
   <v>       0.00300000 </v>
   <v>       0.00600000 </v>
   <v>       0.00600000 </v>
   <v>       0.00600000 </v>
   <v>       0.00600000 </v>
   <v>       0.00600000 </v>
   <v>       0.00600000 </v>
   <v>       0.00600000 </v>
   <v>       0.00300000 </v>
   <v>       0.00300000 </v>
   <v>       0.00600000 </v>
   <v>       0.00600000 </v>
   <v>       0.00600000 </v>
   <v>       0.00600000 </v>
   <v>       0.00600000 </v>
   <v>       0.00300000 </v>
   <v>       0.00300000 </v>
   <v>       0.00600000 </v>
   <v>       0.00600000 </v>
   <v>       0.00600000 </v>
   <v>       0.00300000 </v>
   <v>       0.00300000 </v>
   <v>       0.00600000 </v>
   <v>       0.00300000 </v>
   <v>       0.00150000 </v>
   <v>       0.00300000 </v>
   <v>       0.00600000 </v>
   <v>       0.00600000 </v>
   <v>       0.00600000 </v>
   <v>       0.00300000 </v>
   <v>       0.00300000 </v>
   <v>       0.00600000 </v>
   <v>       0.00600000 </v>
   <v>       0.00600000 </v>
   <v>       0.00600000 </v>
   <v>       0.00600000 </v>
   <v>       0.00300000 </v>
   <v>       0.00300000 </v>
   <v>       0.00600000 </v>
   <v>       0.00600000 </v>
   <v>       0.00600000 </v>
   <v>       0.00300000 </v>
   <v>       0.00300000 </v>
   <v>       0.00600000 </v>
   <v>       0.00300000 </v>
   <v>       0.00150000 </v>
   <v>       0.00300000 </v>
   <v>       0.00600000 </v>
   <v>       0.00300000 </v>
   <v>       0.00300000 </v>
   <v>       0.00600000 </v>
   <v>       0.00300000 </v>
   <v>       0.00150000 </v>
   <v>       0.00075000 </v>
  </varray>
 </kpoints>
 <parameters>
  <separator name="general" >
   <i type="string" name="SYSTEM">Si2</i>
   <i type="logical" name="LCOMPAT"> F  </i>
  </separator>
  <separator name="electronic" >
   <i type="string" name="PREC">accura</i>
   <i name="ENMAX">    400.00000000</i>
   <i name="ENAUG">    322.06900000</i>
   <i name="EDIFF">      0.00000100</i>
   <i type="int" name="IALGO">    38</i>
   <i type="int" name="IWAVPR">    10</i>
   <i type="int" name="NBANDS">     8</i>
   <i name="NELECT">      8.00000000</i>
   <i type="int" name="TURBO">     0</i>
   <i type="int" name="IRESTART">     0</i>
   <i type="int" name="NREBOOT">     0</i>
   <i type="int" name="NMIN">     0</i>
   <i name="EREF">      0.00000000</i>
   <separator name="electronic smearing" >
    <i type="int" name="ISMEAR">     1</i>
    <i name="SIGMA">      0.10000000</i>
    <i name="KSPACING">      0.50000000</i>
    <i type="logical" name="KGAMMA"> T  </i>
   </separator>
   <separator name="electronic projectors" >
    <i type="logical" name="LREAL"> F  </i>
    <v name="ROPT">      0.00000000</v>
    <i type="int" name="LMAXPAW">  -100</i>
    <i type="int" name="LMAXMIX">     2</i>
    <i type="logical" name="NLSPLINE"> F  </i>
   </separator>
   <separator name="electronic startup" >
    <i type="int" name="ISTART">     1</i>
    <i type="int" name="ICHARG">     0</i>
    <i type="int" name="INIWAV">     1</i>
   </separator>
   <separator name="electronic spin" >
    <i type="int" name="ISPIN">     1</i>
    <i type="logical" name="LNONCOLLINEAR"> F  </i>
    <v name="MAGMOM">      1.00000000      1.00000000</v>
    <i name="NUPDOWN">     -1.00000000</i>
    <i type="logical" name="LSORBIT"> F  </i>
    <v name="SAXIS">      0.00000000      0.00000000      1.00000000</v>
    <i type="logical" name="LSPIRAL"> F  </i>
    <v name="QSPIRAL">      0.00000000      0.00000000      0.00000000</v>
    <i type="logical" name="LZEROZ"> F  </i>
   </separator>
   <separator name="electronic exchange-correlation" >
    <i type="logical" name="LASPH"> F  </i>
    <i type="logical" name="LMETAGGA"> F  </i>
   </separator>
   <separator name="electronic convergence" >
    <i type="int" name="NELM">    60</i>
    <i type="int" name="NELMDL">     0</i>
    <i type="int" name="NELMIN">     2</i>
    <i name="ENINI">    400.00000000</i>
    <separator name="electronic convergence detail" >
     <i type="logical" name="LDIAG"> T  </i>
     <i type="logical" name="LSUBROT"> F  </i>
     <i name="WEIMIN">      0.00000000</i>
     <i name="EBREAK">      0.00000003</i>
     <i name="DEPER">      0.30000000</i>
     <i type="int" name="NRMM">     4</i>
     <i name="TIME">      0.40000000</i>
    </separator>
   </separator>
   <separator name="electronic mixer" >
    <i name="AMIX">      0.40000000</i>
    <i name="BMIX">      1.00000000</i>
    <i name="AMIN">      0.10000000</i>
    <i name="AMIX_MAG">      1.60000000</i>
    <i name="BMIX_MAG">      1.00000000</i>
    <separator name="electronic mixer details" >
     <i type="int" name="IMIX">     4</i>
     <i type="logical" name="MIXFIRST"> F  </i>
     <i type="int" name="MAXMIX">   -45</i>
     <i name="WC">    100.00000000</i>
     <i type="int" name="INIMIX">     1</i>
     <i type="int" name="MIXPRE">     1</i>
     <i type="int" name="MREMOVE">     5</i>
    </separator>
   </separator>
   <separator name="electronic dipolcorrection" >
    <i type="logical" name="LDIPOL"> F  </i>
    <i type="logical" name="LMONO"> F  </i>
    <i type="int" name="IDIPOL">     0</i>
    <i name="EPSILON">      1.00000000</i>
    <v name="DIPOL">   -100.00000000   -100.00000000   -100.00000000</v>
    <i name="EFIELD">      0.00000000</i>
   </separator>
  </separator>
  <separator name="grids" >
   <i type="int" name="NGX">    28</i>
   <i type="int" name="NGY">    28</i>
   <i type="int" name="NGZ">    28</i>
   <i type="int" name="NGXF">    56</i>
   <i type="int" name="NGYF">    56</i>
   <i type="int" name="NGZF">    56</i>
   <i type="logical" name="ADDGRID"> F  </i>
  </separator>
  <separator name="ionic" >
   <i type="int" name="NSW">     0</i>
   <i type="int" name="IBRION">    -1</i>
   <i type="int" name="ISIF">     3</i>
   <i name="PSTRESS">      0.00000000</i>
   <i name="EDIFFG">      0.00001000</i>
   <i type="int" name="NFREE">     0</i>
   <i name="POTIM">      0.50000000</i>
   <i name="SMASS">     -3.00000000</i>
   <i name="SCALEE">      1.00000000</i>
  </separator>
  <separator name="ionic md" >
   <i name="TEBEG">      0.00010000</i>
   <i name="TEEND">      0.00010000</i>
   <i type="int" name="NBLOCK">     1</i>
   <i type="int" name="KBLOCK">     1</i>
   <i type="int" name="NPACO">   256</i>
   <i name="APACO">     16.00000000</i>
  </separator>
  <separator name="symmetry" >
   <i type="int" name="ISYM">     2</i>
   <i name="SYMPREC">      0.00001000</i>
  </separator>
  <separator name="dos" >
   <i type="logical" name="LORBIT"> T  </i>
   <v name="RWIGS">     -1.00000000</v>
   <i type="int" name="NEDOS">   301</i>
   <i name="EMIN">     10.00000000</i>
   <i name="EMAX">    -10.00000000</i>
   <i name="EFERMI">      0.00000000</i>
  </separator>
  <separator name="writing" >
   <i type="int" name="NWRITE">     3</i>
   <i type="logical" name="LWAVE"> T  </i>
   <i type="logical" name="LCHARG"> T  </i>
   <i type="logical" name="LPARD"> F  </i>
   <i type="logical" name="LVTOT"> F  </i>
   <i type="logical" name="LVHAR"> F  </i>
   <i type="logical" name="LELF"> F  </i>
   <i type="logical" name="LOPTICS"> F  </i>
   <v name="STM">      0.00000000      0.00000000      0.00000000      0.00000000      0.00000000      0.00000000      0.00000000</v>
  </separator>
  <separator name="performance" >
   <i type="int" name="NPAR">     1</i>
   <i type="int" name="NSIM">     4</i>
   <i type="int" name="NBLK">    -1</i>
   <i type="logical" name="LPLANE"> T  </i>
   <i type="logical" name="LSCALAPACK"> T  </i>
   <i type="logical" name="LSCAAWARE"> F  </i>
   <i type="logical" name="LSCALU"> F  </i>
   <i type="logical" name="LASYNC"> F  </i>
   <i type="logical" name="LORBITALREAL"> F  </i>
  </separator>
  <separator name="miscellaneous" >
   <i type="int" name="IDIOT">     3</i>
   <i type="logical" name="LMUSIC"> F  </i>
   <v name="POMASS">     28.08500000</v>
   <v name="DARWINR">      0.00000000</v>
   <v name="DARWINV">      1.00000000</v>
   <i type="logical" name="LCORR"> T  </i>
  </separator>
  <i type="logical" name="GGA_COMPAT"> T  </i>
  <i type="logical" name="LBERRY"> F  </i>
  <i type="int" name="ICORELEVEL">     0</i>
  <i type="logical" name="LDAU"> F  </i>
  <i type="int" name="I_CONSTRAINED_M">     0</i>
  <separator name="electronic exchange-correlation" >
   <i type="string" name="GGA">--</i>
   <i type="int" name="VOSKOWN">     0</i>
   <i type="logical" name="LHFCALC"> F  </i>
   <i type="string" name="PRECFOCK"></i>
   <i type="logical" name="LSYMGRAD"> F  </i>
   <i type="logical" name="LHFONE"> F  </i>
   <i type="logical" name="LRHFCALC"> F  </i>
   <i type="logical" name="LTHOMAS"> F  </i>
   <i type="logical" name="LMODELHF"> F  </i>
   <i name="ENCUT4O">     -1.00000000</i>
   <i type="int" name="EXXOEP">     0</i>
   <i type="int" name="FOURORBIT">     0</i>
   <i name="AEXX">      0.00000000</i>
   <i name="HFALPHA">      0.00000000</i>
   <i name="MCALPHA">      0.00000000</i>
   <i name="ALDAX">      1.00000000</i>
   <i name="AGGAX">      1.00000000</i>
   <i name="ALDAC">      1.00000000</i>
   <i name="AGGAC">      1.00000000</i>
   <i type="int" name="NKREDX">     1</i>
   <i type="int" name="NKREDY">     1</i>
   <i type="int" name="NKREDZ">     1</i>
   <i type="logical" name="SHIFTRED"> F  </i>
   <i type="logical" name="ODDONLY"> F  </i>
   <i type="logical" name="EVENONLY"> F  </i>
   <i type="int" name="LMAXFOCK">     0</i>
   <i type="int" name="NMAXFOCKAE">     0</i>
   <i type="logical" name="LFOCKAEDFT"> F  </i>
   <i name="HFSCREEN">      0.00000000</i>
   <i name="HFSCREENC">      0.00000000</i>
   <i type="int" name="NBANDSGWLOW">     0</i>
  </separator>
  <separator name="vdW DFT" >
   <i type="logical" name="LUSE_VDW"> F  </i>
   <i name="Zab_VDW">     -0.84910000</i>
   <i name="PARAM1">      0.12340000</i>
   <i name="PARAM2">      1.00000000</i>
   <i name="PARAM3">      0.00000000</i>
  </separator>
  <separator name="model GW" >
   <i type="int" name="MODEL_GW">     0</i>
   <i name="MODEL_EPS0">     12.00772552</i>
   <i name="MODEL_ALPHA">      1.00000000</i>
  </separator>
  <separator name="linear response parameters" >
   <i type="logical" name="LEPSILON"> F  </i>
   <i type="logical" name="LRPA"> F  </i>
   <i type="logical" name="LNABLA"> F  </i>
   <i type="logical" name="LVEL"> F  </i>
   <i type="int" name="KINTER">     0</i>
   <i name="CSHIFT">      0.10000000</i>
   <i name="OMEGAMAX">     -1.00000000</i>
   <i name="DEG_THRESHOLD">      0.00200000</i>
  </separator>
  <separator name="orbital magnetization" >
   <i type="logical" name="NUCIND"> F  </i>
   <v name="MAGPOS">      0.00000000      0.00000000      0.00000000</v>
   <i type="logical" name="LNICSALL"> T  </i>
   <i type="logical" name="ORBITALMAG"> F  </i>
   <i type="logical" name="LMAGBLOCH"> F  </i>
   <i type="logical" name="LCHIMAG"> F  </i>
   <i type="logical" name="LGAUGE"> T  </i>
   <i type="int" name="MAGATOM">     0</i>
   <v name="MAGDIPOL">      0.00000000      0.00000000      0.00000000</v>
   <v name="AVECCONST">      0.00000000      0.00000000      0.00000000</v>
  </separator>
  <separator name="response functions" >
   <i type="logical" name="LADDER"> F  </i>
   <i type="logical" name="LFXC"> F  </i>
   <i type="logical" name="LHARTREE"> T  </i>
   <i type="int" name="IBSE">     0</i>
   <v type="int" name="KPOINT">    -1     0     0     0</v>
   <i type="logical" name="LTCTE"> F  </i>
   <i type="logical" name="LTETE"> F  </i>
   <i type="logical" name="LTRIPLET"> F  </i>
   <i type="logical" name="LFXCEPS"> F  </i>
   <i type="logical" name="LFXHEG"> F  </i>
   <i type="int" name="NATURALO">     0</i>
   <i type="logical" name="L2ORDER"> F  </i>
   <i type="logical" name="LUSEW"> F  </i>
   <i name="ENCUTGW">     -2.00000000</i>
   <i name="ENCUTGWSOFT">     -2.00000000</i>
   <i name="ENCUTLF">     -1.00000000</i>
   <i type="int" name="LMAXMP2">    -1</i>
   <i name="SCISSOR">      0.00000000</i>
   <i type="int" name="NOMEGA">     0</i>
   <i type="int" name="NOMEGAR">     0</i>
   <i type="int" name="NBANDSGW">    -1</i>
   <i type="int" name="NBANDSO">    -1</i>
   <i type="int" name="NBANDSV">    -1</i>
   <i type="int" name="NELM">     1</i>
   <i type="int" name="NELMHF">     1</i>
   <i type="int" name="DIM">     3</i>
   <i type="int" name="ANTIRES">     0</i>
   <i name="OMEGAMAX">    -30.00000000</i>
   <i name="OMEGAMIN">    -30.00000000</i>
   <i name="OMEGATL">   -200.00000000</i>
   <i type="int" name="OMEGAGRID">     0</i>
   <i name="CSHIFT">     -0.10000000</i>
   <i type="logical" name="SELFENERGY"> F  </i>
   <i type="logical" name="LSPECTRAL"> F  </i>
   <i type="logical" name="LSPECTRALGW"> F  </i>
   <i type="logical" name="LSINGLES"> F  </i>
   <i type="logical" name="LFERMIGW"> F  </i>
   <i type="logical" name="ODDONLYGW"> F  </i>
   <i type="logical" name="EVENONLYGW"> F  </i>
   <i type="int" name="NKREDLFX">     1</i>
   <i type="int" name="NKREDLFY">     1</i>
   <i type="int" name="NKREDLFZ">     1</i>
   <i type="int" name="MAXMEM">  1800</i>
   <i type="int" name="TELESCOPE">     0</i>
   <i type="int" name="TAUPAR">     1</i>
   <i type="int" name="OMEGAPAR">    -1</i>
   <i name="LAMBDA">      1.00000000</i>
  </separator>
  <separator name="External order field" >
   <i name="OFIELD_KAPPA">      0.00000000</i>
   <v name="OFIELD_K">      0.00000000      0.00000000      0.00000000</v>
   <i name="OFIELD_Q6_NEAR">      0.00000000</i>
   <i name="OFIELD_Q6_FAR">      0.00000000</i>
   <i name="OFIELD_A">      0.00000000</i>
  </separator>
 </parameters>
 <atominfo>
  <atoms>       2 </atoms>
  <types>       1 </types>
  <array name="atoms" >
   <dimension dim="1">ion</dimension>
   <field type="string">element</field>
   <field type="int">atomtype</field>
   <set>
    <rc><c>Si</c><c>   1</c></rc>
    <rc><c>Si</c><c>   1</c></rc>
   </set>
  </array>
  <array name="atomtypes" >
   <dimension dim="1">type</dimension>
   <field type="int">atomspertype</field>
   <field type="string">element</field>
   <field>mass</field>
   <field>valence</field>
   <field type="string">pseudopotential</field>
   <set>
    <rc><c>   2</c><c>Si</c><c>     28.08500000</c><c>      4.00000000</c><c>  PAW_PBE Si 05Jan2001                  </c></rc>
   </set>
  </array>
 </atominfo>
 <structure name="initialpos" >
  <crystal>
   <varray name="basis" >
    <v>       2.71500000       2.71500000       0.00000000 </v>
    <v>       0.00000000       2.71500000       2.71500000 </v>
    <v>       2.71500000       0.00000000       2.71500000 </v>
   </varray>
   <i name="volume">     40.02575175 </i>
   <varray name="rec_basis" >
    <v>       0.18416206       0.18416206      -0.18416206 </v>
    <v>      -0.18416206       0.18416206       0.18416206 </v>
    <v>       0.18416206      -0.18416206       0.18416206 </v>
   </varray>
  </crystal>
  <varray name="positions" >
   <v>       0.00000000       0.00000000       0.00000000 </v>
   <v>       0.25000000       0.25000000       0.25000000 </v>
  </varray>
 </structure>
 <calculation>
  <scstep>
   <time name="dav">    8.12    8.13</time>
   <time name="total">    8.77    8.78</time>
   <energy>
    <i name="alphaZ">      3.36414726 </i>
    <i name="ewald">   -228.56352493 </i>
    <i name="hartreedc">    -12.23485770 </i>
    <i name="XCdc">    -18.30032412 </i>
    <i name="pawpsdc">   8719.54556938 </i>
    <i name="pawaedc">  -8684.36196448 </i>
    <i name="eentropy">      0.00006204 </i>
    <i name="bandstr">      3.77566111 </i>
    <i name="atom">    206.13149246 </i>
    <i name="e_fr_energy">    -10.64373898 </i>
    <i name="e_wo_entrp">    -10.64380102 </i>
    <i name="e_0_energy">    -10.64375966 </i>
   </energy>
  </scstep>
  <scstep>
   <time name="dav">    7.51    7.52</time>
   <time name="total">    8.18    8.19</time>
   <energy>
    <i name="e_fr_energy">    -10.87961163 </i>
    <i name="e_wo_entrp">    -10.87966225 </i>
    <i name="e_0_energy">    -10.87962850 </i>
   </energy>
  </scstep>
  <scstep>
   <time name="dav">    8.20    8.21</time>
   <time name="total">    8.95    8.97</time>
   <energy>
    <i name="e_fr_energy">    -10.85815051 </i>
    <i name="e_wo_entrp">    -10.85819810 </i>
    <i name="e_0_energy">    -10.85816637 </i>
   </energy>
  </scstep>
  <scstep>
   <time name="dav">    7.47    7.48</time>
   <time name="total">    8.30    8.31</time>
   <energy>
    <i name="e_fr_energy">    -10.84435855 </i>
    <i name="e_wo_entrp">    -10.84440701 </i>
    <i name="e_0_energy">    -10.84437470 </i>
   </energy>
  </scstep>
  <scstep>
   <time name="dav">    9.10    9.11</time>
   <time name="total">    9.83    9.85</time>
   <energy>
    <i name="e_fr_energy">    -10.84438755 </i>
    <i name="e_wo_entrp">    -10.84443602 </i>
    <i name="e_0_energy">    -10.84440371 </i>
   </energy>
  </scstep>
  <scstep>
   <time name="dav">    7.33    7.34</time>
   <time name="total">    8.04    8.05</time>
   <energy>
    <i name="e_fr_energy">    -10.84441385 </i>
    <i name="e_wo_entrp">    -10.84446232 </i>
    <i name="e_0_energy">    -10.84443000 </i>
   </energy>
  </scstep>
  <scstep>
   <time name="dav">    8.02    8.03</time>
   <time name="total">    8.74    8.75</time>
   <energy>
    <i name="e_fr_energy">    -10.84442220 </i>
    <i name="e_wo_entrp">    -10.84447065 </i>
    <i name="e_0_energy">    -10.84443835 </i>
   </energy>
  </scstep>
  <scstep>
   <time name="dav">    6.89    6.90</time>
   <time name="total">    7.03    7.04</time>
   <energy>
    <i name="alphaZ">      3.36414726 </i>
    <i name="ewald">   -228.56352493 </i>
    <i name="hartreedc">    -14.91656050 </i>
    <i name="XCdc">    -17.96163923 </i>
    <i name="pawpsdc">    868.07275200 </i>
    <i name="pawaedc">   -833.11042598 </i>
    <i name="eentropy">      0.00004845 </i>
    <i name="bandstr">      6.13928858 </i>
    <i name="atom">    206.13149246 </i>
    <i name="e_fr_energy">    -10.84442189 </i>
    <i name="e_wo_entrp">    -10.84447033 </i>
    <i name="e_0_energy">    -10.84443803 </i>
   </energy>
  </scstep>
  <structure>
   <crystal>
    <varray name="basis" >
     <v>       2.71500000       2.71500000       0.00000000 </v>
     <v>       0.00000000       2.71500000       2.71500000 </v>
     <v>       2.71500000       0.00000000       2.71500000 </v>
    </varray>
    <i name="volume">     40.02575175 </i>
    <varray name="rec_basis" >
     <v>       0.18416206       0.18416206      -0.18416206 </v>
     <v>      -0.18416206       0.18416206       0.18416206 </v>
     <v>       0.18416206      -0.18416206       0.18416206 </v>
    </varray>
   </crystal>
   <varray name="positions" >
    <v>       0.00000000       0.00000000       0.00000000 </v>
    <v>       0.25000000       0.25000000       0.25000000 </v>
   </varray>
  </structure>
  <varray name="forces" >
   <v>      -0.00000000      -0.00000000      -0.00000000 </v>
   <v>       0.00000000       0.00000000       0.00000000 </v>
  </varray>
  <varray name="stress" >
   <v>      19.71072496       0.00000000       0.00000000 </v>
   <v>       0.00000000      19.71072496       0.00000000 </v>
   <v>      -0.00000000       0.00000000      19.71072496 </v>
  </varray>
  <energy>
   <i name="e_fr_energy">    -10.84442189 </i>
   <i name="e_wo_entrp">    -10.84443803 </i>
   <i name="e_0_energy">      0.00004845 </i>
  </energy>
  <time name="totalsc">   72.32   72.44</time>
  <eigenvalues>
   <array>
    <dimension dim="1">band</dimension>
    <dimension dim="2">kpoint</dimension>
    <dimension dim="3">spin</dimension>
    <field>eigene</field>
    <field>occ</field>
    <set>
     <set comment="spin 1">
      <set comment="kpoint 1">
       <r>   -6.1304    1.0000 </r>
       <r>    5.8296    0.7870 </r>
       <r>    5.8296    0.7870 </r>
       <r>    5.8296    0.7870 </r>
       <r>    8.3958   -0.0000 </r>
       <r>    8.3958   -0.0000 </r>
       <r>    8.3958   -0.0000 </r>
       <r>    9.2077    0.0000 </r>
      </set>
      <set comment="kpoint 2">
       <r>   -6.0976    1.0000 </r>
       <r>    5.4726    1.0000 </r>
       <r>    5.7744    1.0142 </r>
       <r>    5.7744    1.0142 </r>
       <r>    8.4559   -0.0000 </r>
       <r>    8.4768   -0.0000 </r>
       <r>    8.4768   -0.0000 </r>
       <r>    9.4478    0.0000 </r>
      </set>
      <set comment="kpoint 3">
       <r>   -5.9995    1.0000 </r>
       <r>    4.6858    1.0000 </r>
       <r>    5.6315    1.0022 </r>
       <r>    5.6315    1.0022 </r>
       <r>    8.4080   -0.0000 </r>
       <r>    8.6879    0.0000 </r>
       <r>    8.6879    0.0000 </r>
       <r>   10.1281    0.0000 </r>
      </set>
      <set comment="kpoint 4">
       <r>   -5.8372    1.0000 </r>
       <r>    3.7655    1.0000 </r>
       <r>    5.4451    1.0000 </r>
       <r>    5.4451    1.0000 </r>
       <r>    8.2488   -0.0000 </r>
       <r>    8.9559    0.0000 </r>
       <r>    8.9559    0.0000 </r>
       <r>   10.9924    0.0000 </r>
      </set>
      <set comment="kpoint 5">
       <r>   -5.6128    1.0000 </r>
       <r>    2.8233    1.0000 </r>
       <r>    5.2511    1.0000 </r>
       <r>    5.2511    1.0000 </r>
       <r>    8.0548   -0.0000 </r>
       <r>    9.1958    0.0000 </r>
       <r>    9.1958    0.0000 </r>
       <r>   11.8902    0.0000 </r>
      </set>
      <set comment="kpoint 6">
       <r>   -5.3305    1.0000 </r>
       <r>    1.9050    1.0000 </r>
       <r>    5.0709    1.0000 </r>
       <r>    5.0709    1.0000 </r>
       <r>    7.8632   -0.0000 </r>
       <r>    9.3379    0.0000 </r>
       <r>    9.3379    0.0000 </r>
       <r>   12.7567    0.0000 </r>
      </set>
      <set comment="kpoint 7">
       <r>   -4.9972    1.0000 </r>
       <r>    1.0369    1.0000 </r>
       <r>    4.9163    1.0000 </r>
       <r>    4.9163    1.0000 </r>
       <r>    7.6934   -0.0000 </r>
       <r>    9.3652    0.0000 </r>
       <r>    9.3652    0.0000 </r>
       <r>   13.4280    0.0000 </r>
      </set>
      <set comment="kpoint 8">
       <r>   -4.6271    1.0000 </r>
       <r>    0.2433    1.0000 </r>
       <r>    4.7931    1.0000 </r>
       <r>    4.7931    1.0000 </r>
       <r>    7.5552   -0.0000 </r>
       <r>    9.3174    0.0000 </r>
       <r>    9.3174    0.0000 </r>
       <r>   13.7312    0.0000 </r>
      </set>
      <set comment="kpoint 9">
       <r>   -4.2499    1.0000 </r>
       <r>   -0.4396    1.0000 </r>
       <r>    4.7041    1.0000 </r>
       <r>    4.7041    1.0000 </r>
       <r>    7.4540   -0.0000 </r>
       <r>    9.2468    0.0000 </r>
       <r>    9.2468    0.0000 </r>
       <r>   13.6734    0.0000 </r>
      </set>
      <set comment="kpoint 10">
       <r>   -3.9325    1.0000 </r>
       <r>   -0.9418    1.0000 </r>
       <r>    4.6504    1.0000 </r>
       <r>    4.6504    1.0000 </r>
       <r>    7.3925   -0.0000 </r>
       <r>    9.1913    0.0000 </r>
       <r>    9.1913    0.0000 </r>
       <r>   13.5919    0.0000 </r>
      </set>
      <set comment="kpoint 11">
       <r>   -3.7982    1.0000 </r>
       <r>   -1.1378    1.0000 </r>
       <r>    4.6325    1.0000 </r>
       <r>    4.6325    1.0000 </r>
       <r>    7.3719   -0.0000 </r>
       <r>    9.1710    0.0000 </r>
       <r>    9.1710    0.0000 </r>
       <r>   13.5603    0.0000 </r>
      </set>
      <set comment="kpoint 12">
       <r>   -6.0867    1.0000 </r>
       <r>    5.5505    1.0000 </r>
       <r>    5.6541    1.0053 </r>
       <r>    5.6541    1.0053 </r>
       <r>    8.2903   -0.0000 </r>
       <r>    8.6252    0.0000 </r>
       <r>    8.6252    0.0000 </r>
       <r>    9.4772    0.0000 </r>
      </set>
      <set comment="kpoint 13">
       <r>   -6.0102    1.0000 </r>
       <r>    4.9224    1.0000 </r>
       <r>    5.4680    1.0000 </r>
       <r>    5.6011    1.0006 </r>
       <r>    8.2826   -0.0000 </r>
       <r>    8.7336    0.0000 </r>
       <r>    8.8857    0.0000 </r>
       <r>    9.9647    0.0000 </r>
      </set>
      <set comment="kpoint 14">
       <r>   -5.8692    1.0000 </r>
       <r>    4.0535    1.0000 </r>
       <r>    5.2595    1.0000 </r>
       <r>    5.4746    1.0000 </r>
       <r>    8.3593   -0.0000 </r>
       <r>    8.7301    0.0000 </r>
       <r>    9.1893    0.0000 </r>
       <r>   10.7177    0.0000 </r>
      </set>
      <set comment="kpoint 15">
       <r>   -5.6653    1.0000 </r>
       <r>    3.1273    1.0000 </r>
       <r>    5.0584    1.0000 </r>
       <r>    5.2908    1.0000 </r>
       <r>    8.2921   -0.0000 </r>
       <r>    8.8703    0.0000 </r>
       <r>    9.4594    0.0000 </r>
       <r>   11.4122    0.0000 </r>
      </set>
      <set comment="kpoint 16">
       <r>   -5.4018    1.0000 </r>
       <r>    2.2073    1.0000 </r>
       <r>    4.8820    1.0000 </r>
       <r>    5.0902    1.0000 </r>
       <r>    8.1324   -0.0000 </r>
       <r>    9.0530    0.0000 </r>
       <r>    9.6258    0.0000 </r>
       <r>   11.8529    0.0000 </r>
      </set>
      <set comment="kpoint 17">
       <r>   -5.0845    1.0000 </r>
       <r>    1.3261    1.0000 </r>
       <r>    4.7396    1.0000 </r>
       <r>    4.8972    1.0000 </r>
       <r>    7.9680   -0.0000 </r>
       <r>    9.1500    0.0000 </r>
       <r>    9.6610    0.0000 </r>
       <r>   12.2506    0.0000 </r>
      </set>
      <set comment="kpoint 18">
       <r>   -4.7245    1.0000 </r>
       <r>    0.5087    1.0000 </r>
       <r>    4.6357    1.0000 </r>
       <r>    4.7250    1.0000 </r>
       <r>    7.8251   -0.0000 </r>
       <r>    9.1583    0.0000 </r>
       <r>    9.5968    0.0000 </r>
       <r>   12.7799    0.0000 </r>
      </set>
      <set comment="kpoint 19">
       <r>   -4.3446    1.0000 </r>
       <r>   -0.2141    1.0000 </r>
       <r>    4.5721    1.0000 </r>
       <r>    4.5807    1.0000 </r>
       <r>    7.7143   -0.0000 </r>
       <r>    9.1287    0.0000 </r>
       <r>    9.4891    0.0000 </r>
       <r>   13.3523    0.0000 </r>
      </set>
      <set comment="kpoint 20">
       <r>   -3.9961    1.0000 </r>
       <r>   -0.7865    1.0000 </r>
       <r>    4.4688    1.0000 </r>
       <r>    4.5489    1.0000 </r>
       <r>    7.6403   -0.0000 </r>
       <r>    9.1066    0.0000 </r>
       <r>    9.3819    0.0000 </r>
       <r>   13.6424    0.0000 </r>
      </set>
      <set comment="kpoint 21">
       <r>   -3.7850    1.0000 </r>
       <r>   -1.0998    1.0000 </r>
       <r>    4.3921    1.0000 </r>
       <r>    4.5652    1.0000 </r>
       <r>    7.6056   -0.0000 </r>
       <r>    9.1173    0.0000 </r>
       <r>    9.3018    0.0000 </r>
       <r>   13.6819    0.0000 </r>
      </set>
      <set comment="kpoint 22">
       <r>   -3.8313    1.0000 </r>
       <r>   -1.0329    1.0000 </r>
       <r>    4.3529    1.0000 </r>
       <r>    4.6193    1.0000 </r>
       <r>    7.6112   -0.0000 </r>
       <r>    9.1700    0.0000 </r>
       <r>    9.2599    0.0000 </r>
       <r>   13.6981    0.0000 </r>
      </set>
      <set comment="kpoint 23">
       <r>   -4.1039    1.0000 </r>
       <r>   -0.6172    1.0000 </r>
       <r>    4.3531    1.0000 </r>
       <r>    4.7090    1.0000 </r>
       <r>    7.6570   -0.0000 </r>
       <r>    9.2555    0.0000 </r>
       <r>    9.2615    0.0000 </r>
       <r>   13.7073    0.0000 </r>
      </set>
      <set comment="kpoint 24">
       <r>   -4.4714    1.0000 </r>
       <r>    0.0144    1.0000 </r>
       <r>    4.3943    1.0000 </r>
       <r>    4.8317    1.0000 </r>
       <r>    7.7421   -0.0000 </r>
       <r>    9.2748    0.0000 </r>
       <r>    9.3759    0.0000 </r>
       <r>   13.5660    0.0000 </r>
      </set>
      <set comment="kpoint 25">
       <r>   -4.8484    1.0000 </r>
       <r>    0.7731    1.0000 </r>
       <r>    4.4773    1.0000 </r>
       <r>    4.9836    1.0000 </r>
       <r>    7.8643   -0.0000 </r>
       <r>    9.2865    0.0000 </r>
       <r>    9.4799    0.0000 </r>
       <r>   13.1322    0.0000 </r>
      </set>
      <set comment="kpoint 26">
       <r>   -5.1959    1.0000 </r>
       <r>    1.6143    1.0000 </r>
       <r>    4.6019    1.0000 </r>
       <r>    5.1595    1.0000 </r>
       <r>    8.0189   -0.0000 </r>
       <r>    9.2428    0.0000 </r>
       <r>    9.5187    0.0000 </r>
       <r>   12.5518    0.0000 </r>
      </set>
      <set comment="kpoint 27">
       <r>   -5.4961    1.0000 </r>
       <r>    2.5101    1.0000 </r>
       <r>    4.7665    1.0000 </r>
       <r>    5.3502    1.0000 </r>
       <r>    8.1972   -0.0000 </r>
       <r>    9.1025    0.0000 </r>
       <r>    9.4309    0.0000 </r>
       <r>   11.9695    0.0000 </r>
      </set>
      <set comment="kpoint 28">
       <r>   -5.7402    1.0000 </r>
       <r>    3.4325    1.0000 </r>
       <r>    4.9674    1.0000 </r>
       <r>    5.5395    1.0000 </r>
       <r>    8.3824   -0.0000 </r>
       <r>    8.8779    0.0000 </r>
       <r>    9.2009    0.0000 </r>
       <r>   11.2880    0.0000 </r>
      </set>
      <set comment="kpoint 29">
       <r>   -5.9234    1.0000 </r>
       <r>    4.3348    1.0000 </r>
       <r>    5.2002    1.0000 </r>
       <r>    5.6996    1.0201 </r>
       <r>    8.5399   -0.0000 </r>
       <r>    8.6419    0.0000 </r>
       <r>    8.8898    0.0000 </r>
       <r>   10.5216    0.0000 </r>
      </set>
      <set comment="kpoint 30">
       <r>   -6.0430    1.0000 </r>
       <r>    5.0930    1.0000 </r>
       <r>    5.4784    1.0000 </r>
       <r>    5.7900    0.9794 </r>
       <r>    8.4857   -0.0000 </r>
       <r>    8.5602   -0.0000 </r>
       <r>    8.6368    0.0000 </r>
       <r>    9.8244    0.0000 </r>
      </set>
      <set comment="kpoint 31">
       <r>   -5.9555    1.0000 </r>
       <r>    4.8933    1.0000 </r>
       <r>    5.2537    1.0000 </r>
       <r>    5.2537    1.0000 </r>
       <r>    8.0168   -0.0000 </r>
       <r>    9.1864    0.0000 </r>
       <r>    9.1864    0.0000 </r>
       <r>   10.0324    0.0000 </r>
      </set>
      <set comment="kpoint 32">
       <r>   -5.8360    1.0000 </r>
       <r>    4.2340    1.0000 </r>
       <r>    5.0286    1.0000 </r>
       <r>    5.1399    1.0000 </r>
       <r>    7.9653   -0.0000 </r>
       <r>    9.3075    0.0000 </r>
       <r>    9.5278    0.0000 </r>
       <r>   10.4662    0.0000 </r>
      </set>
      <set comment="kpoint 33">
       <r>   -5.6529    1.0000 </r>
       <r>    3.3808    1.0000 </r>
       <r>    4.8190    1.0000 </r>
       <r>    4.9905    1.0000 </r>
       <r>    8.0760   -0.0000 </r>
       <r>    9.2454    0.0000 </r>
       <r>    9.8406    0.0000 </r>
       <r>   10.8220    0.0000 </r>
      </set>
      <set comment="kpoint 34">
       <r>   -5.4090    1.0000 </r>
       <r>    2.4924    1.0000 </r>
       <r>    4.6400    1.0000 </r>
       <r>    4.7828    1.0000 </r>
       <r>    8.1950   -0.0000 </r>
       <r>    9.2097    0.0000 </r>
       <r>   10.0525    0.0000 </r>
       <r>   10.9494    0.0000 </r>
      </set>
      <set comment="kpoint 35">
       <r>   -5.1091    1.0000 </r>
       <r>    1.6199    1.0000 </r>
       <r>    4.5002    1.0000 </r>
       <r>    4.5574    1.0000 </r>
       <r>    8.2101   -0.0000 </r>
       <r>    9.2240    0.0000 </r>
       <r>   10.1207    0.0000 </r>
       <r>   11.1549    0.0000 </r>
      </set>
      <set comment="kpoint 36">
       <r>   -4.7618    1.0000 </r>
       <r>    0.7944    1.0000 </r>
       <r>    4.3402    1.0000 </r>
       <r>    4.4038    1.0000 </r>
       <r>    8.1470   -0.0000 </r>
       <r>    9.2171    0.0000 </r>
       <r>   10.0643    0.0000 </r>
       <r>   11.5905    0.0000 </r>
      </set>
      <set comment="kpoint 37">
       <r>   -4.3848    1.0000 </r>
       <r>    0.0461    1.0000 </r>
       <r>    4.1458    1.0000 </r>
       <r>    4.3529    1.0000 </r>
       <r>    8.0687   -0.0000 </r>
       <r>    9.1794    0.0000 </r>
       <r>    9.9399    0.0000 </r>
       <r>   12.2231    0.0000 </r>
      </set>
      <set comment="kpoint 38">
       <r>   -4.0168    1.0000 </r>
       <r>   -0.5791    1.0000 </r>
       <r>    3.9823    1.0000 </r>
       <r>    4.3473    1.0000 </r>
       <r>    8.0094   -0.0000 </r>
       <r>    9.1469    0.0000 </r>
       <r>    9.7983    0.0000 </r>
       <r>   12.9575    0.0000 </r>
      </set>
      <set comment="kpoint 39">
       <r>   -3.7438    1.0000 </r>
       <r>   -0.9915    1.0000 </r>
       <r>    3.8553    1.0000 </r>
       <r>    4.3859    1.0000 </r>
       <r>    7.9836   -0.0000 </r>
       <r>    9.1461    0.0000 </r>
       <r>    9.6720    0.0000 </r>
       <r>   13.6363    0.0000 </r>
      </set>
      <set comment="kpoint 40">
       <r>   -3.6981    1.0000 </r>
       <r>   -1.0564    1.0000 </r>
       <r>    3.7690    1.0000 </r>
       <r>    4.4665    1.0000 </r>
       <r>    7.9959   -0.0000 </r>
       <r>    9.1890    0.0000 </r>
       <r>    9.5770    0.0000 </r>
       <r>   13.9639    0.0000 </r>
      </set>
      <set comment="kpoint 41">
       <r>   -3.9111    1.0000 </r>
       <r>   -0.7426    1.0000 </r>
       <r>    3.7267    1.0000 </r>
       <r>    4.5857    1.0000 </r>
       <r>    8.0465   -0.0000 </r>
       <r>    9.2768    0.0000 </r>
       <r>    9.5170    0.0000 </r>
       <r>   13.8929    0.0000 </r>
      </set>
      <set comment="kpoint 42">
       <r>   -4.2606    1.0000 </r>
       <r>   -0.1737    1.0000 </r>
       <r>    3.7316    1.0000 </r>
       <r>    4.7390    1.0000 </r>
       <r>    8.1331   -0.0000 </r>
       <r>    9.3992    0.0000 </r>
       <r>    9.4827    0.0000 </r>
       <r>   13.4693    0.0000 </r>
      </set>
      <set comment="kpoint 43">
       <r>   -4.6404    1.0000 </r>
       <r>    0.5402    1.0000 </r>
       <r>    3.7864    1.0000 </r>
       <r>    4.9204    1.0000 </r>
       <r>    8.2522   -0.0000 </r>
       <r>    9.4481    0.0000 </r>
       <r>    9.5280    0.0000 </r>
       <r>   12.8543    0.0000 </r>
      </set>
      <set comment="kpoint 44">
       <r>   -4.9999    1.0000 </r>
       <r>    1.3408    1.0000 </r>
       <r>    3.8944    1.0000 </r>
       <r>    5.1207    1.0000 </r>
       <r>    8.3984   -0.0000 </r>
       <r>    9.3688    0.0000 </r>
       <r>    9.6056    0.0000 </r>
       <r>   12.2602    0.0000 </r>
      </set>
      <set comment="kpoint 45">
       <r>   -5.3166    1.0000 </r>
       <r>    2.1901    1.0000 </r>
       <r>    4.0614    1.0000 </r>
       <r>    5.3264    1.0000 </r>
       <r>    8.5623   -0.0000 </r>
       <r>    9.2051    0.0000 </r>
       <r>    9.5419    0.0000 </r>
       <r>   11.8027    0.0000 </r>
      </set>
      <set comment="kpoint 46">
       <r>   -5.5795    1.0000 </r>
       <r>    3.0422    1.0000 </r>
       <r>    4.3033    1.0000 </r>
       <r>    5.5153    1.0000 </r>
       <r>    8.7249    0.0000 </r>
       <r>    8.9737    0.0000 </r>
       <r>    9.2868    0.0000 </r>
       <r>   11.4560    0.0000 </r>
      </set>
      <set comment="kpoint 47">
       <r>   -5.7828    1.0000 </r>
       <r>    3.8014    1.0000 </r>
       <r>    4.6703    1.0000 </r>
       <r>    5.6534    1.0052 </r>
       <r>    8.7551    0.0000 </r>
       <r>    8.8193    0.0000 </r>
       <r>    8.9449    0.0000 </r>
       <r>   11.0389    0.0000 </r>
      </set>
      <set comment="kpoint 48">
       <r>   -5.7378    1.0000 </r>
       <r>    4.0807    1.0000 </r>
       <r>    4.7910    1.0000 </r>
       <r>    4.7910    1.0000 </r>
       <r>    7.6606   -0.0000 </r>
       <r>    9.9137    0.0000 </r>
       <r>    9.9137    0.0000 </r>
       <r>   10.2511    0.0000 </r>
      </set>
      <set comment="kpoint 49">
       <r>   -5.5758    1.0000 </r>
       <r>    3.4682    1.0000 </r>
       <r>    4.5718    1.0000 </r>
       <r>    4.6113    1.0000 </r>
       <r>    7.6012   -0.0000 </r>
       <r>    9.9060    0.0000 </r>
       <r>   10.2831    0.0000 </r>
       <r>   10.3776    0.0000 </r>
      </set>
      <set comment="kpoint 50">
       <r>   -5.3521    1.0000 </r>
       <r>    2.6861    1.0000 </r>
       <r>    4.3859    1.0000 </r>
       <r>    4.4017    1.0000 </r>
       <r>    7.7259   -0.0000 </r>
       <r>    9.7835    0.0000 </r>
       <r>   10.3971    0.0000 </r>
       <r>   10.5617    0.0000 </r>
      </set>
      <set comment="kpoint 51">
       <r>   -5.0704    1.0000 </r>
       <r>    1.8668    1.0000 </r>
       <r>    4.1473    1.0000 </r>
       <r>    4.2418    1.0000 </r>
       <r>    7.8770   -0.0000 </r>
       <r>    9.8195    0.0000 </r>
       <r>   10.3382    0.0000 </r>
       <r>   10.6899    0.0000 </r>
      </set>
      <set comment="kpoint 52">
       <r>   -4.7379    1.0000 </r>
       <r>    1.0632    1.0000 </r>
       <r>    3.8851    1.0000 </r>
       <r>    4.1440    1.0000 </r>
       <r>    7.9449   -0.0000 </r>
       <r>    9.8923    0.0000 </r>
       <r>   10.4957    0.0000 </r>
       <r>   10.6672    0.0000 </r>
      </set>
      <set comment="kpoint 53">
       <r>   -4.3681    1.0000 </r>
       <r>    0.3121    1.0000 </r>
       <r>    3.6398    1.0000 </r>
       <r>    4.0948    1.0000 </r>
       <r>    7.9455   -0.0000 </r>
       <r>    9.8286    0.0000 </r>
       <r>   10.5474    0.0000 </r>
       <r>   11.0382    0.0000 </r>
      </set>
      <set comment="kpoint 54">
       <r>   -3.9901    1.0000 </r>
       <r>   -0.3444    1.0000 </r>
       <r>    3.4252    1.0000 </r>
       <r>    4.0946    1.0000 </r>
       <r>    7.9372   -0.0000 </r>
       <r>    9.7420    0.0000 </r>
       <r>   10.3894    0.0000 </r>
       <r>   11.7879    0.0000 </r>
      </set>
      <set comment="kpoint 55">
       <r>   -3.6709    1.0000 </r>
       <r>   -0.8320    1.0000 </r>
       <r>    3.2497    1.0000 </r>
       <r>    4.1425    1.0000 </r>
       <r>    7.9563   -0.0000 </r>
       <r>    9.6804    0.0000 </r>
       <r>   10.2324    0.0000 </r>
       <r>   12.6440    0.0000 </r>
      </set>
      <set comment="kpoint 56">
       <r>   -3.5373    1.0000 </r>
       <r>   -1.0203    1.0000 </r>
       <r>    3.1192    1.0000 </r>
       <r>    4.2363    1.0000 </r>
       <r>    8.0174   -0.0000 </r>
       <r>    9.6566    0.0000 </r>
       <r>   10.0979    0.0000 </r>
       <r>   13.5414    0.0000 </r>
      </set>
      <set comment="kpoint 57">
       <r>   -3.6771    1.0000 </r>
       <r>   -0.8205    1.0000 </r>
       <r>    3.0388    1.0000 </r>
       <r>    4.3725    1.0000 </r>
       <r>    8.1223   -0.0000 </r>
       <r>    9.6745    0.0000 </r>
       <r>    9.9929    0.0000 </r>
       <r>   14.0887    0.0000 </r>
      </set>
      <set comment="kpoint 58">
       <r>   -3.9987    1.0000 </r>
       <r>   -0.3264    1.0000 </r>
       <r>    3.0133    1.0000 </r>
       <r>    4.5459    1.0000 </r>
       <r>    8.2660   -0.0000 </r>
       <r>    9.7308    0.0000 </r>
       <r>    9.9106    0.0000 </r>
       <r>   13.4093    0.0000 </r>
      </set>
      <set comment="kpoint 59">
       <r>   -4.3766    1.0000 </r>
       <r>    0.3302    1.0000 </r>
       <r>    3.0492    1.0000 </r>
       <r>    4.7488    1.0000 </r>
       <r>    8.4377   -0.0000 </r>
       <r>    9.8074    0.0000 </r>
       <r>    9.8257    0.0000 </r>
       <r>   12.6703    0.0000 </r>
      </set>
      <set comment="kpoint 60">
       <r>   -4.7455    1.0000 </r>
       <r>    1.0694    1.0000 </r>
       <r>    3.1577    1.0000 </r>
       <r>    4.9698    1.0000 </r>
       <r>    8.6225    0.0000 </r>
       <r>    9.6930    0.0000 </r>
       <r>    9.8511    0.0000 </r>
       <r>   12.0261    0.0000 </r>
      </set>
      <set comment="kpoint 61">
       <r>   -5.0767    1.0000 </r>
       <r>    1.8287    1.0000 </r>
       <r>    3.3644    1.0000 </r>
       <r>    5.1913    1.0000 </r>
       <r>    8.7963    0.0000 </r>
       <r>    9.4747    0.0000 </r>
       <r>    9.7514    0.0000 </r>
       <r>   11.6139    0.0000 </r>
      </set>
      <set comment="kpoint 62">
       <r>   -5.3571    1.0000 </r>
       <r>    2.5181    1.0000 </r>
       <r>    3.7289    1.0000 </r>
       <r>    5.3860    1.0000 </r>
       <r>    8.8967    0.0000 </r>
       <r>    9.2030    0.0000 </r>
       <r>    9.4713    0.0000 </r>
       <r>   11.4862    0.0000 </r>
      </set>
      <set comment="kpoint 63">
       <r>   -5.4347    1.0000 </r>
       <r>    3.2093    1.0000 </r>
       <r>    4.3429    1.0000 </r>
       <r>    4.3429    1.0000 </r>
       <r>    7.2935   -0.0000 </r>
       <r>    9.7219    0.0000 </r>
       <r>   10.7266    0.0000 </r>
       <r>   10.7266    0.0000 </r>
      </set>
      <set comment="kpoint 64">
       <r>   -5.2313    1.0000 </r>
       <r>    2.6495    1.0000 </r>
       <r>    4.1199    1.0000 </r>
       <r>    4.1475    1.0000 </r>
       <r>    7.2496   -0.0000 </r>
       <r>    9.4122    0.0000 </r>
       <r>   10.9840    0.0000 </r>
       <r>   11.0974    0.0000 </r>
      </set>
      <set comment="kpoint 65">
       <r>   -4.9687    1.0000 </r>
       <r>    1.9621    1.0000 </r>
       <r>    3.8359    1.0000 </r>
       <r>    3.9948    1.0000 </r>
       <r>    7.3910   -0.0000 </r>
       <r>    9.2861    0.0000 </r>
       <r>   10.9895    0.0000 </r>
       <r>   11.3182    0.0000 </r>
      </set>
      <set comment="kpoint 66">
       <r>   -4.6525    1.0000 </r>
       <r>    1.2366    1.0000 </r>
       <r>    3.5176    1.0000 </r>
       <r>    3.8898    1.0000 </r>
       <r>    7.5404   -0.0000 </r>
       <r>    9.4473    0.0000 </r>
       <r>   10.8911    0.0000 </r>
       <r>   11.3602    0.0000 </r>
      </set>
      <set comment="kpoint 67">
       <r>   -4.2931    1.0000 </r>
       <r>    0.5241    1.0000 </r>
       <r>    3.2076    1.0000 </r>
       <r>    3.8352    1.0000 </r>
       <r>    7.6060   -0.0000 </r>
       <r>    9.9185    0.0000 </r>
       <r>   10.7684    0.0000 </r>
       <r>   11.2682    0.0000 </r>
      </set>
      <set comment="kpoint 68">
       <r>   -3.9126    1.0000 </r>
       <r>   -0.1299    1.0000 </r>
       <r>    2.9301    1.0000 </r>
       <r>    3.8318    1.0000 </r>
       <r>    7.6307   -0.0000 </r>
       <r>   10.5511    0.0000 </r>
       <r>   10.7183    0.0000 </r>
       <r>   11.1105    0.0000 </r>
      </set>
      <set comment="kpoint 69">
       <r>   -3.5616    1.0000 </r>
       <r>   -0.6609    1.0000 </r>
       <r>    2.6978    1.0000 </r>
       <r>    3.8792    1.0000 </r>
       <r>    7.6715   -0.0000 </r>
       <r>   10.5351    0.0000 </r>
       <r>   10.9369    0.0000 </r>
       <r>   11.4822    0.0000 </r>
      </set>
      <set comment="kpoint 70">
       <r>   -3.3511    1.0000 </r>
       <r>   -0.9508    1.0000 </r>
       <r>    2.5185    1.0000 </r>
       <r>    3.9755    1.0000 </r>
       <r>    7.7552   -0.0000 </r>
       <r>   10.4713    0.0000 </r>
       <r>   10.7746    0.0000 </r>
       <r>   12.4166    0.0000 </r>
      </set>
      <set comment="kpoint 71">
       <r>   -3.4086    1.0000 </r>
       <r>   -0.8695    1.0000 </r>
       <r>    2.3990    1.0000 </r>
       <r>    4.1176    1.0000 </r>
       <r>    7.8892   -0.0000 </r>
       <r>   10.4385    0.0000 </r>
       <r>   10.6338    0.0000 </r>
       <r>   13.4026    0.0000 </r>
      </set>
      <set comment="kpoint 72">
       <r>   -3.6922    1.0000 </r>
       <r>   -0.4626    1.0000 </r>
       <r>    2.3475    1.0000 </r>
       <r>    4.3000    1.0000 </r>
       <r>    8.0709   -0.0000 </r>
       <r>   10.4354    0.0000 </r>
       <r>   10.5072    0.0000 </r>
       <r>   13.3545    0.0000 </r>
      </set>
      <set comment="kpoint 73">
       <r>   -4.0628    1.0000 </r>
       <r>    0.1181    1.0000 </r>
       <r>    2.3781    1.0000 </r>
       <r>    4.5150    1.0000 </r>
       <r>    8.2892   -0.0000 </r>
       <r>   10.3640    0.0000 </r>
       <r>   10.4441    0.0000 </r>
       <r>   12.5517    0.0000 </r>
      </set>
      <set comment="kpoint 74">
       <r>   -4.4377    1.0000 </r>
       <r>    0.7584    1.0000 </r>
       <r>    2.5198    1.0000 </r>
       <r>    4.7499    1.0000 </r>
       <r>    8.5224   -0.0000 </r>
       <r>   10.1471    0.0000 </r>
       <r>   10.3956    0.0000 </r>
       <r>   11.8950    0.0000 </r>
      </set>
      <set comment="kpoint 75">
       <r>   -4.7811    1.0000 </r>
       <r>    1.3570    1.0000 </r>
       <r>    2.8308    1.0000 </r>
       <r>    4.9854    1.0000 </r>
       <r>    8.7270    0.0000 </r>
       <r>    9.8268    0.0000 </r>
       <r>   10.1423    0.0000 </r>
       <r>   11.5772    0.0000 </r>
      </set>
      <set comment="kpoint 76">
       <r>   -5.0481    1.0000 </r>
       <r>    2.3157    1.0000 </r>
       <r>    3.9414    1.0000 </r>
       <r>    3.9414    1.0000 </r>
       <r>    6.9616   -0.0000 </r>
       <r>    8.9644    0.0000 </r>
       <r>   11.5895    0.0000 </r>
       <r>   11.5895    0.0000 </r>
      </set>
      <set comment="kpoint 77">
       <r>   -4.8048    1.0000 </r>
       <r>    1.7982    1.0000 </r>
       <r>    3.6996    1.0000 </r>
       <r>    3.7777    1.0000 </r>
       <r>    6.9466   -0.0000 </r>
       <r>    8.6761    0.0000 </r>
       <r>   11.8522    0.0000 </r>
       <r>   11.9464    0.0000 </r>
      </set>
      <set comment="kpoint 78">
       <r>   -4.5059    1.0000 </r>
       <r>    1.2018    1.0000 </r>
       <r>    3.3526    1.0000 </r>
       <r>    3.6621    1.0000 </r>
       <r>    7.1038   -0.0000 </r>
       <r>    8.6271    0.0000 </r>
       <r>   11.8672    0.0000 </r>
       <r>   12.0986    0.0000 </r>
      </set>
      <set comment="kpoint 79">
       <r>   -4.1594    1.0000 </r>
       <r>    0.5812    1.0000 </r>
       <r>    2.9690    1.0000 </r>
       <r>    3.5978    1.0000 </r>
       <r>    7.2377   -0.0000 </r>
       <r>    8.9126    0.0000 </r>
       <r>   11.7824    0.0000 </r>
       <r>   12.0667    0.0000 </r>
      </set>
      <set comment="kpoint 80">
       <r>   -3.7819    1.0000 </r>
       <r>   -0.0213    1.0000 </r>
       <r>    2.6074    1.0000 </r>
       <r>    3.5860    1.0000 </r>
       <r>    7.2979   -0.0000 </r>
       <r>    9.5037    0.0000 </r>
       <r>   11.6728    0.0000 </r>
       <r>   11.9288    0.0000 </r>
      </set>
      <set comment="kpoint 81">
       <r>   -3.4114    1.0000 </r>
       <r>   -0.5504    1.0000 </r>
       <r>    2.2975    1.0000 </r>
       <r>    3.6267    1.0000 </r>
       <r>    7.3509   -0.0000 </r>
       <r>   10.2788    0.0000 </r>
       <r>   11.5798    0.0000 </r>
       <r>   11.7509    0.0000 </r>
      </set>
      <set comment="kpoint 82">
       <r>   -3.1389    1.0000 </r>
       <r>   -0.9044    1.0000 </r>
       <r>    2.0543    1.0000 </r>
       <r>    3.7184    1.0000 </r>
       <r>    7.4415   -0.0000 </r>
       <r>   11.0751    0.0000 </r>
       <r>   11.5698    0.0000 </r>
       <r>   11.6065    0.0000 </r>
      </set>
      <set comment="kpoint 83">
       <r>   -3.1127    1.0000 </r>
       <r>   -0.9315    1.0000 </r>
       <r>    1.8886    1.0000 </r>
       <r>    3.8584    1.0000 </r>
       <r>    7.5842   -0.0000 </r>
       <r>   11.3001    0.0000 </r>
       <r>   11.3977    0.0000 </r>
       <r>   12.3079    0.0000 </r>
      </set>
      <set comment="kpoint 84">
       <r>   -3.3508    1.0000 </r>
       <r>   -0.6207    1.0000 </r>
       <r>    1.8149    1.0000 </r>
       <r>    4.0418    1.0000 </r>
       <r>    7.7797   -0.0000 </r>
       <r>   11.2219    0.0000 </r>
       <r>   11.2835    0.0000 </r>
       <r>   13.1661    0.0000 </r>
      </set>
      <set comment="kpoint 85">
       <r>   -3.7091    1.0000 </r>
       <r>   -0.1413    1.0000 </r>
       <r>    1.8611    1.0000 </r>
       <r>    4.2609    1.0000 </r>
       <r>    8.0192   -0.0000 </r>
       <r>   10.9899    0.0000 </r>
       <r>   11.2227    0.0000 </r>
       <r>   12.5135    0.0000 </r>
      </set>
      <set comment="kpoint 86">
       <r>   -4.0859    1.0000 </r>
       <r>    0.3522    1.0000 </r>
       <r>    2.0789    1.0000 </r>
       <r>    4.5034    1.0000 </r>
       <r>    8.2822   -0.0000 </r>
       <r>   10.6229    0.0000 </r>
       <r>   10.9633    0.0000 </r>
       <r>   11.9833    0.0000 </r>
      </set>
      <set comment="kpoint 87">
       <r>   -4.5805    1.0000 </r>
       <r>    1.4173    1.0000 </r>
       <r>    3.6019    1.0000 </r>
       <r>    3.6019    1.0000 </r>
       <r>    6.6930   -0.0000 </r>
       <r>    8.2451   -0.0000 </r>
       <r>   12.4854    0.0000 </r>
       <r>   12.4854    0.0000 </r>
      </set>
      <set comment="kpoint 88">
       <r>   -4.2993    1.0000 </r>
       <r>    0.9327    1.0000 </r>
       <r>    3.3602    1.0000 </r>
       <r>    3.4738    1.0000 </r>
       <r>    6.7141   -0.0000 </r>
       <r>    8.0174   -0.0000 </r>
       <r>   12.7615    0.0000 </r>
       <r>   12.8194    0.0000 </r>
      </set>
      <set comment="kpoint 89">
       <r>   -3.9674    1.0000 </r>
       <r>    0.4113    1.0000 </r>
       <r>    2.9755    1.0000 </r>
       <r>    3.3972    1.0000 </r>
       <r>    6.8809   -0.0000 </r>
       <r>    8.0756   -0.0000 </r>
       <r>   12.7895    0.0000 </r>
       <r>   12.9041    0.0000 </r>
      </set>
      <set comment="kpoint 90">
       <r>   -3.5973    1.0000 </r>
       <r>   -0.1106    1.0000 </r>
       <r>    2.5457    1.0000 </r>
       <r>    3.3737    1.0000 </r>
       <r>    6.9928   -0.0000 </r>
       <r>    8.5051   -0.0000 </r>
       <r>   12.7145    0.0000 </r>
       <r>   12.8163    0.0000 </r>
      </set>
      <set comment="kpoint 91">
       <r>   -3.2168    1.0000 </r>
       <r>   -0.5952    1.0000 </r>
       <r>    2.1463    1.0000 </r>
       <r>    3.4038    1.0000 </r>
       <r>    7.0596   -0.0000 </r>
       <r>    9.2117    0.0000 </r>
       <r>   12.6112    0.0000 </r>
       <r>   12.6494    0.0000 </r>
      </set>
      <set comment="kpoint 92">
       <r>   -2.8983    1.0000 </r>
       <r>   -0.9664    1.0000 </r>
       <r>    1.8196    1.0000 </r>
       <r>    3.4865    1.0000 </r>
       <r>    7.1510   -0.0000 </r>
       <r>   10.0738    0.0000 </r>
       <r>   12.4560    0.0000 </r>
       <r>   12.5153    0.0000 </r>
      </set>
      <set comment="kpoint 93">
       <r>   -2.7973    1.0000 </r>
       <r>   -1.0714    1.0000 </r>
       <r>    1.5925    1.0000 </r>
       <r>    3.6194    1.0000 </r>
       <r>    7.2935   -0.0000 </r>
       <r>   11.0150    0.0000 </r>
       <r>   12.2499    0.0000 </r>
       <r>   12.4555    0.0000 </r>
      </set>
      <set comment="kpoint 94">
       <r>   -2.9920    1.0000 </r>
       <r>   -0.8482    1.0000 </r>
       <r>    1.4936    1.0000 </r>
       <r>    3.7982    1.0000 </r>
       <r>    7.4919   -0.0000 </r>
       <r>   11.8463    0.0000 </r>
       <r>   11.9953    0.0000 </r>
       <r>   12.5678    0.0000 </r>
      </set>
      <set comment="kpoint 95">
       <r>   -3.3360    1.0000 </r>
       <r>   -0.4815    1.0000 </r>
       <r>    1.5665    1.0000 </r>
       <r>    4.0158    1.0000 </r>
       <r>    7.7396   -0.0000 </r>
       <r>   11.5843    0.0000 </r>
       <r>   11.8769    0.0000 </r>
       <r>   12.6900    0.0000 </r>
      </set>
      <set comment="kpoint 96">
       <r>   -4.0354    1.0000 </r>
       <r>    0.5264    1.0000 </r>
       <r>    3.3323    1.0000 </r>
       <r>    3.3323    1.0000 </r>
       <r>    6.5054   -0.0000 </r>
       <r>    7.6312   -0.0000 </r>
       <r>   13.4062    0.0000 </r>
       <r>   13.4062    0.0000 </r>
      </set>
      <set comment="kpoint 97">
       <r>   -3.7189    1.0000 </r>
       <r>    0.0699    1.0000 </r>
       <r>    3.1045    1.0000 </r>
       <r>    3.2419    1.0000 </r>
       <r>    6.5662   -0.0000 </r>
       <r>    7.4771   -0.0000 </r>
       <r>   13.6949    0.0000 </r>
       <r>   13.7129    0.0000 </r>
      </set>
      <set comment="kpoint 98">
       <r>   -3.3589    1.0000 </r>
       <r>   -0.3918    1.0000 </r>
       <r>    2.7090    1.0000 </r>
       <r>    3.2050    1.0000 </r>
       <r>    6.7291   -0.0000 </r>
       <r>    7.6629   -0.0000 </r>
       <r>   13.7346    0.0000 </r>
       <r>   13.7382    0.0000 </r>
      </set>
      <set comment="kpoint 99">
       <r>   -2.9757    1.0000 </r>
       <r>   -0.8292    1.0000 </r>
       <r>    2.2647    1.0000 </r>
       <r>    3.2222    1.0000 </r>
       <r>    6.8209   -0.0000 </r>
       <r>    8.2358   -0.0000 </r>
       <r>   13.6080    0.0000 </r>
       <r>   13.6680    0.0000 </r>
      </set>
      <set comment="kpoint 100">
       <r>   -2.6259    1.0000 </r>
       <r>   -1.1903    1.0000 </r>
       <r>    1.8622    1.0000 </r>
       <r>    3.2931    1.0000 </r>
       <r>    6.9105   -0.0000 </r>
       <r>    9.0396    0.0000 </r>
       <r>   13.4079    0.0000 </r>
       <r>   13.5687    0.0000 </r>
      </set>
      <set comment="kpoint 101">
       <r>   -2.4755    1.0000 </r>
       <r>   -1.3262    1.0000 </r>
       <r>    1.5627    1.0000 </r>
       <r>    3.4155    1.0000 </r>
       <r>    7.0477   -0.0000 </r>
       <r>    9.9721    0.0000 </r>
       <r>   13.1428    0.0000 </r>
       <r>   13.4642    0.0000 </r>
      </set>
      <set comment="kpoint 102">
       <r>   -2.6575    1.0000 </r>
       <r>   -1.1361    1.0000 </r>
       <r>    1.4204    1.0000 </r>
       <r>    3.5860    1.0000 </r>
       <r>    7.2429   -0.0000 </r>
       <r>   10.9773    0.0000 </r>
       <r>   12.6978    0.0000 </r>
       <r>   13.2420    0.0000 </r>
      </set>
      <set comment="kpoint 103">
       <r>   -3.4171    1.0000 </r>
       <r>   -0.3453    1.0000 </r>
       <r>    3.1372    1.0000 </r>
       <r>    3.1372    1.0000 </r>
       <r>    6.4112   -0.0000 </r>
       <r>    7.1412   -0.0000 </r>
       <r>   14.3458    0.0000 </r>
       <r>   14.3458    0.0000 </r>
      </set>
      <set comment="kpoint 104">
       <r>   -3.0687    1.0000 </r>
       <r>   -0.7747    1.0000 </r>
       <r>    2.9336    1.0000 </r>
       <r>    3.0857    1.0000 </r>
       <r>    6.5114   -0.0000 </r>
       <r>    7.0673   -0.0000 </r>
       <r>   14.6223    0.0000 </r>
       <r>   14.6433    0.0000 </r>
      </set>
      <set comment="kpoint 105">
       <r>   -2.6879    1.0000 </r>
       <r>   -1.1860    1.0000 </r>
       <r>    2.5508    1.0000 </r>
       <r>    3.0886    1.0000 </r>
       <r>    6.6461   -0.0000 </r>
       <r>    7.4045   -0.0000 </r>
       <r>   14.5888    0.0000 </r>
       <r>   14.6922    0.0000 </r>
      </set>
      <set comment="kpoint 106">
       <r>   -2.3204    1.0000 </r>
       <r>   -1.5375    1.0000 </r>
       <r>    2.1260    1.0000 </r>
       <r>    3.1459    1.0000 </r>
       <r>    6.7325   -0.0000 </r>
       <r>    8.1027   -0.0000 </r>
       <r>   14.3794    0.0000 </r>
       <r>   14.6333    0.0000 </r>
      </set>
      <set comment="kpoint 107">
       <r>   -2.2118    1.0000 </r>
       <r>   -1.6066    1.0000 </r>
       <r>    1.7672    1.0000 </r>
       <r>    3.2559    1.0000 </r>
       <r>    6.8598   -0.0000 </r>
       <r>    8.9828    0.0000 </r>
       <r>   13.9337    0.0000 </r>
       <r>   14.5026    0.0000 </r>
      </set>
      <set comment="kpoint 108">
       <r>   -2.7312    1.0000 </r>
       <r>   -1.1861    1.0000 </r>
       <r>    3.0192    1.0000 </r>
       <r>    3.0192    1.0000 </r>
       <r>    6.4200   -0.0000 </r>
       <r>    6.7784   -0.0000 </r>
       <r>   15.2851    0.0000 </r>
       <r>   15.2851    0.0000 </r>
      </set>
      <set comment="kpoint 109">
       <r>   -2.3557    1.0000 </r>
       <r>   -1.5869    1.0000 </r>
       <r>    2.8480    1.0000 </r>
       <r>    3.0071    1.0000 </r>
       <r>    6.5427   -0.0000 </r>
       <r>    6.8021   -0.0000 </r>
       <r>   15.4907    0.0000 </r>
       <r>   15.5607    0.0000 </r>
      </set>
      <set comment="kpoint 110">
       <r>   -2.0260    1.0000 </r>
       <r>   -1.8901    1.0000 </r>
       <r>    2.4984    1.0000 </r>
       <r>    3.0497    1.0000 </r>
       <r>    6.6211   -0.0000 </r>
       <r>    7.3155   -0.0000 </r>
       <r>   15.1953    0.0000 </r>
       <r>   15.4951    0.0000 </r>
      </set>
      <set comment="kpoint 111">
       <r>   -1.9847    1.0000 </r>
       <r>   -1.9847    1.0000 </r>
[...]
       <r>   -1.2129    1.0000 </r>
       <r>    2.1804    1.0000 </r>
       <r>    2.4888    1.0000 </r>
       <r>    8.1814   -0.0000 </r>
       <r>    8.4309   -0.0000 </r>
       <r>   12.1630    0.0000 </r>
       <r>   13.9484    0.0000 </r>
      </set>
      <set comment="kpoint 246">
       <r>   -2.1977    1.0000 </r>
       <r>   -1.5208    1.0000 </r>
       <r>    1.9328    1.0000 </r>
       <r>    2.4292    1.0000 </r>
       <r>    8.3933   -0.0000 </r>
       <r>    9.1585    0.0000 </r>
       <r>   11.9576    0.0000 </r>
       <r>   12.8461    0.0000 </r>
      </set>
      <set comment="kpoint 247">
       <r>   -2.1898    1.0000 </r>
       <r>   -1.5058    1.0000 </r>
       <r>    1.6951    1.0000 </r>
       <r>    2.5510    1.0000 </r>
       <r>    8.5486   -0.0000 </r>
       <r>   10.0848    0.0000 </r>
       <r>   11.7131    0.0000 </r>
       <r>   11.8956    0.0000 </r>
      </set>
      <set comment="kpoint 248">
       <r>   -1.8810    1.0000 </r>
       <r>   -1.8810    1.0000 </r>
       <r>    2.2712    1.0000 </r>
       <r>    2.2712    1.0000 </r>
       <r>    8.2558   -0.0000 </r>
       <r>    8.2558   -0.0000 </r>
       <r>   13.0281    0.0000 </r>
       <r>   13.0281    0.0000 </r>
      </set>
      <set comment="kpoint 249">
       <r>   -2.9778    1.0000 </r>
       <r>   -0.7289    1.0000 </r>
       <r>    1.8521    1.0000 </r>
       <r>    2.8391    1.0000 </r>
       <r>    9.2267    0.0000 </r>
       <r>    9.6001    0.0000 </r>
       <r>   10.2684    0.0000 </r>
       <r>   13.6219    0.0000 </r>
      </set>
      <set comment="kpoint 250">
       <r>   -2.6327    1.0000 </r>
       <r>   -1.0712    1.0000 </r>
       <r>    1.7310    1.0000 </r>
       <r>    2.6538    1.0000 </r>
       <r>    9.4574    0.0000 </r>
       <r>    9.8354    0.0000 </r>
       <r>   10.5383    0.0000 </r>
       <r>   12.5223    0.0000 </r>
      </set>
      <set comment="kpoint 251">
       <r>   -2.4664    1.0000 </r>
       <r>   -1.2383    1.0000 </r>
       <r>    1.6943    1.0000 </r>
       <r>    2.5879    1.0000 </r>
       <r>    9.5005    0.0000 </r>
       <r>    9.8218    0.0000 </r>
       <r>   11.2319    0.0000 </r>
       <r>   11.6770    0.0000 </r>
      </set>
      <set comment="kpoint 252">
       <r>   -2.4132    1.0000 </r>
       <r>   -1.2721    1.0000 </r>
       <r>    1.8849    1.0000 </r>
       <r>    2.3760    1.0000 </r>
       <r>    9.2033    0.0000 </r>
       <r>    9.4051    0.0000 </r>
       <r>   10.9463    0.0000 </r>
       <r>   12.6599    0.0000 </r>
      </set>
      <set comment="kpoint 253">
       <r>   -2.1540    1.0000 </r>
       <r>   -1.5082    1.0000 </r>
       <r>    1.7963    1.0000 </r>
       <r>    2.2780    1.0000 </r>
       <r>    9.4152    0.0000 </r>
       <r>   10.1301    0.0000 </r>
       <r>   10.8453    0.0000 </r>
       <r>   11.6149    0.0000 </r>
      </set>
      <set comment="kpoint 254">
       <r>   -2.2912    1.0000 </r>
       <r>   -1.3733    1.0000 </r>
       <r>    1.7124    1.0000 </r>
       <r>    2.3996    1.0000 </r>
       <r>    9.5679    0.0000 </r>
       <r>   10.2630    0.0000 </r>
       <r>   10.7318    0.0000 </r>
       <r>   11.4896    0.0000 </r>
      </set>
      <set comment="kpoint 255">
       <r>   -1.8378    1.0000 </r>
       <r>   -1.8378    1.0000 </r>
       <r>    2.0564    1.0000 </r>
       <r>    2.0564    1.0000 </r>
       <r>    9.2623    0.0000 </r>
       <r>    9.2623    0.0000 </r>
       <r>   11.7601    0.0000 </r>
       <r>   11.7601    0.0000 </r>
      </set>
      <set comment="kpoint 256">
       <r>   -1.8207    1.0000 </r>
       <r>   -1.8207    1.0000 </r>
       <r>    1.9789    1.0000 </r>
       <r>    1.9789    1.0000 </r>
       <r>   10.0985    0.0000 </r>
       <r>   10.0985    0.0000 </r>
       <r>   10.8375    0.0000 </r>
       <r>   10.8375    0.0000 </r>
      </set>
     </set>
    </set>
   </array>
  </eigenvalues>
  <separator name="orbital magnetization" >
   <v name="MAGDIPOLOUT">      0.00000000      0.00000000      0.00000000</v>
  </separator>
  <dos>
   <i name="efermi">      5.86611546 </i>
   <total>
    <array>
     <dimension dim="1">gridpoints</dimension>
     <dimension dim="2">spin</dimension>
     <field>energy</field>
     <field>total</field>
     <field>integrated</field>
     <set>
      <set comment="spin 1">
       <r>    -7.2344     0.0000     0.0000 </r>
       <r>    -7.1535     0.0000     0.0000 </r>
       <r>    -7.0725     0.0000     0.0000 </r>
       <r>    -6.9916    -0.0000    -0.0000 </r>
       <r>    -6.9106    -0.0000    -0.0000 </r>
       <r>    -6.8296    -0.0000    -0.0000 </r>
       <r>    -6.7487    -0.0000    -0.0000 </r>
       <r>    -6.6677    -0.0000    -0.0000 </r>
       <r>    -6.5868    -0.0000    -0.0000 </r>
       <r>    -6.5058    -0.0000    -0.0000 </r>
       <r>    -6.4248    -0.0000    -0.0000 </r>
       <r>    -6.3439    -0.0001    -0.0000 </r>
       <r>    -6.2629    -0.0011    -0.0001 </r>
       <r>    -6.1820    -0.0018    -0.0002 </r>
       <r>    -6.1010     0.0229     0.0016 </r>
       <r>    -6.0200     0.0835     0.0084 </r>
       <r>    -5.9391     0.1332     0.0192 </r>
       <r>    -5.8581     0.1693     0.0329 </r>
       <r>    -5.7772     0.1879     0.0481 </r>
       <r>    -5.6962     0.2349     0.0671 </r>
       <r>    -5.6152     0.2194     0.0849 </r>
       <r>    -5.5343     0.2805     0.1076 </r>
       <r>    -5.4533     0.2932     0.1313 </r>
       <r>    -5.3724     0.2670     0.1529 </r>
       <r>    -5.2914     0.3434     0.1807 </r>
       <r>    -5.2105     0.3732     0.2109 </r>
       <r>    -5.1295     0.3009     0.2353 </r>
       <r>    -5.0485     0.3701     0.2653 </r>
       <r>    -4.9676     0.4585     0.3024 </r>
       <r>    -4.8866     0.3976     0.3346 </r>
       <r>    -4.8057     0.3479     0.3627 </r>
       <r>    -4.7247     0.4834     0.4019 </r>
       <r>    -4.6437     0.5330     0.4450 </r>
       <r>    -4.5628     0.4375     0.4805 </r>
       <r>    -4.4818     0.4597     0.5177 </r>
       <r>    -4.4009     0.5014     0.5583 </r>
       <r>    -4.3199     0.6292     0.6092 </r>
       <r>    -4.2389     0.5860     0.6566 </r>
       <r>    -4.1580     0.5168     0.6985 </r>
       <r>    -4.0770     0.5375     0.7420 </r>
       <r>    -3.9961     0.7395     0.8019 </r>
       <r>    -3.9151     0.7922     0.8660 </r>
       <r>    -3.8342     0.7208     0.9244 </r>
       <r>    -3.7532     0.6471     0.9767 </r>
       <r>    -3.6722     0.9749     1.0557 </r>
       <r>    -3.5913     1.0439     1.1402 </r>
       <r>    -3.5103     0.7261     1.1990 </r>
       <r>    -3.4294     0.6523     1.2518 </r>
       <r>    -3.3484     0.7838     1.3152 </r>
       <r>    -3.2674     0.9204     1.3897 </r>
       <r>    -3.1865     0.6461     1.4421 </r>
       <r>    -3.1055     0.6036     1.4909 </r>
       <r>    -3.0246     0.6314     1.5420 </r>
       <r>    -2.9436     0.7394     1.6019 </r>
       <r>    -2.8626     0.6090     1.6512 </r>
       <r>    -2.7817     0.4828     1.6903 </r>
       <r>    -2.7007     0.5067     1.7313 </r>
       <r>    -2.6198     0.6168     1.7812 </r>
       <r>    -2.5388     0.4846     1.8205 </r>
       <r>    -2.4579     0.3791     1.8512 </r>
       <r>    -2.3769     0.3708     1.8812 </r>
       <r>    -2.2959     0.4426     1.9170 </r>
       <r>    -2.2150     0.3515     1.9455 </r>
       <r>    -2.1340     0.2841     1.9685 </r>
       <r>    -2.0531     0.1640     1.9818 </r>
       <r>    -1.9721     0.1080     1.9905 </r>
       <r>    -1.8911     0.1526     2.0028 </r>
       <r>    -1.8102     0.1611     2.0159 </r>
       <r>    -1.7292     0.0776     2.0222 </r>
       <r>    -1.6483     0.0480     2.0261 </r>
       <r>    -1.5673     0.2946     2.0499 </r>
       <r>    -1.4863     0.5158     2.0917 </r>
       <r>    -1.4054     0.3092     2.1167 </r>
       <r>    -1.3244     0.1914     2.1322 </r>
       <r>    -1.2435     0.3817     2.1631 </r>
       <r>    -1.1625     0.8219     2.2296 </r>
       <r>    -1.0815     0.7457     2.2900 </r>
       <r>    -1.0006     0.9533     2.3672 </r>
       <r>    -0.9196     1.5962     2.4964 </r>
       <r>    -0.8387     1.5244     2.6198 </r>
       <r>    -0.7577     1.1297     2.7113 </r>
       <r>    -0.6768     0.7397     2.7712 </r>
       <r>    -0.5958     0.7583     2.8326 </r>
       <r>    -0.5148     0.8149     2.8986 </r>
       <r>    -0.4339     0.6420     2.9505 </r>
       <r>    -0.3529     0.6592     3.0039 </r>
       <r>    -0.2720     0.6337     3.0552 </r>
       <r>    -0.1910     0.4181     3.0890 </r>
       <r>    -0.1100     0.6373     3.1406 </r>
       <r>    -0.0291     0.5115     3.1821 </r>
       <r>     0.0519     0.4269     3.2166 </r>
       <r>     0.1328     0.4782     3.2553 </r>
       <r>     0.2138     0.3459     3.2833 </r>
       <r>     0.2948     0.5224     3.3256 </r>
       <r>     0.3757     0.4400     3.3612 </r>
       <r>     0.4567     0.1925     3.3768 </r>
       <r>     0.5376     0.4640     3.4144 </r>
       <r>     0.6186     0.4052     3.4472 </r>
       <r>     0.6995     0.1441     3.4589 </r>
       <r>     0.7805     0.4041     3.4916 </r>
       <r>     0.8615     0.4493     3.5280 </r>
       <r>     0.9424     0.1783     3.5424 </r>
       <r>     1.0234     0.1804     3.5570 </r>
       <r>     1.1043     0.3423     3.5847 </r>
       <r>     1.1853     0.2223     3.6027 </r>
       <r>     1.2663     0.2404     3.6222 </r>
       <r>     1.3472     0.3544     3.6509 </r>
       <r>     1.4282     0.2391     3.6702 </r>
       <r>     1.5091     0.3458     3.6982 </r>
       <r>     1.5901     0.8005     3.7630 </r>
       <r>     1.6711     1.0276     3.8462 </r>
       <r>     1.7520     0.9977     3.9270 </r>
       <r>     1.8330     1.3118     4.0332 </r>
       <r>     1.9139     1.3176     4.1399 </r>
       <r>     1.9949     0.9837     4.2195 </r>
       <r>     2.0759     0.8613     4.2892 </r>
       <r>     2.1568     1.0569     4.3748 </r>
       <r>     2.2378     1.0419     4.4591 </r>
       <r>     2.3187     1.0000     4.5401 </r>
       <r>     2.3997     1.1897     4.6364 </r>
       <r>     2.4806     1.0341     4.7201 </r>
       <r>     2.5616     0.9655     4.7983 </r>
       <r>     2.6426     1.1063     4.8879 </r>
       <r>     2.7235     1.2484     4.9889 </r>
       <r>     2.8045     1.1186     5.0795 </r>
       <r>     2.8854     1.1272     5.1707 </r>
       <r>     2.9664     1.4210     5.2858 </r>
       <r>     3.0474     1.7229     5.4253 </r>
       <r>     3.1283     1.6353     5.5577 </r>
       <r>     3.2093     1.3330     5.6656 </r>
       <r>     3.2902     0.9694     5.7441 </r>
       <r>     3.3712     1.6416     5.8770 </r>
       <r>     3.4522     1.9747     6.0368 </r>
       <r>     3.5331     1.2299     6.1364 </r>
       <r>     3.6141     1.0144     6.2185 </r>
       <r>     3.6950     1.4287     6.3342 </r>
       <r>     3.7760     1.5015     6.4558 </r>
       <r>     3.8569     1.3236     6.5629 </r>
       <r>     3.9379     1.1922     6.6594 </r>
       <r>     4.0189     1.2280     6.7589 </r>
       <r>     4.0998     1.3835     6.8709 </r>
       <r>     4.1808     1.1635     6.9651 </r>
       <r>     4.2617     1.0654     7.0513 </r>
       <r>     4.3427     1.3132     7.1576 </r>
       <r>     4.4237     1.2581     7.2595 </r>
       <r>     4.5046     1.0599     7.3453 </r>
       <r>     4.5856     1.1504     7.4384 </r>
       <r>     4.6665     1.0348     7.5222 </r>
       <r>     4.7475     0.8212     7.5887 </r>
       <r>     4.8285     0.7971     7.6532 </r>
       <r>     4.9094     0.6129     7.7028 </r>
       <r>     4.9904     0.5783     7.7496 </r>
       <r>     5.0713     0.5956     7.7979 </r>
       <r>     5.1523     0.4774     7.8365 </r>
       <r>     5.2333     0.3730     7.8667 </r>
       <r>     5.3142     0.3599     7.8958 </r>
       <r>     5.3952     0.2546     7.9165 </r>
       <r>     5.4761     0.3022     7.9409 </r>
       <r>     5.5571     0.3012     7.9653 </r>
       <r>     5.6380     0.1889     7.9806 </r>
       <r>     5.7190     0.1273     7.9909 </r>
       <r>     5.8000     0.0816     7.9975 </r>
       <r>     5.8809     0.0331     8.0002 </r>
       <r>     5.9619    -0.0006     8.0001 </r>
       <r>     6.0428    -0.0015     8.0000 </r>
       <r>     6.1238    -0.0001     8.0000 </r>
       <r>     6.2048    -0.0002     8.0000 </r>
       <r>     6.2857    -0.0015     7.9999 </r>
       <r>     6.3667     0.0018     8.0000 </r>
       <r>     6.4476     0.0280     8.0023 </r>
       <r>     6.5286     0.1109     8.0113 </r>
       <r>     6.6096     0.1752     8.0254 </r>
       <r>     6.6905     0.2384     8.0447 </r>
       <r>     6.7715     0.3233     8.0709 </r>
       <r>     6.8524     0.3804     8.1017 </r>
       <r>     6.9334     0.4519     8.1383 </r>
       <r>     7.0143     0.4994     8.1787 </r>
       <r>     7.0953     0.4816     8.2177 </r>
       <r>     7.1763     0.4410     8.2534 </r>
       <r>     7.2572     0.4515     8.2900 </r>
       <r>     7.3382     0.7220     8.3484 </r>
       <r>     7.4191     0.7844     8.4119 </r>
       <r>     7.5001     0.6731     8.4664 </r>
       <r>     7.5811     0.8808     8.5377 </r>
       <r>     7.6620     1.1569     8.6314 </r>
       <r>     7.7430     1.0118     8.7133 </r>
       <r>     7.8239     0.7579     8.7747 </r>
       <r>     7.9049     1.0314     8.8582 </r>
       <r>     7.9859     1.5203     8.9813 </r>
       <r>     8.0668     1.5812     9.1093 </r>
       <r>     8.1478     1.3180     9.2160 </r>
       <r>     8.2287     1.7544     9.3580 </r>
       <r>     8.3097     1.7773     9.5019 </r>
       <r>     8.3907     1.4654     9.6205 </r>
       <r>     8.4716     1.3266     9.7279 </r>
       <r>     8.5526     1.2518     9.8293 </r>
       <r>     8.6335     1.2546     9.9309 </r>
       <r>     8.7145     1.2073    10.0286 </r>
       <r>     8.7954     0.9817    10.1081 </r>
       <r>     8.8764     0.6580    10.1614 </r>
       <r>     8.9574     0.9877    10.2413 </r>
       <r>     9.0383     1.4927    10.3622 </r>
       <r>     9.1193     2.1119    10.5331 </r>
       <r>     9.2002     2.5460    10.7393 </r>
       <r>     9.2812     2.1679    10.9148 </r>
       <r>     9.3622     1.4940    11.0357 </r>
       <r>     9.4431     1.4736    11.1550 </r>
       <r>     9.5241     1.9607    11.3138 </r>
       <r>     9.6050     1.7278    11.4536 </r>
       <r>     9.6860     1.4001    11.5670 </r>
       <r>     9.7670     1.3173    11.6736 </r>
       <r>     9.8479     1.3599    11.7837 </r>
       <r>     9.9289     1.0284    11.8670 </r>
       <r>    10.0098     1.1765    11.9622 </r>
       <r>    10.0908     1.6581    12.0965 </r>
       <r>    10.1717     1.6759    12.2322 </r>
       <r>    10.2527     1.1398    12.3244 </r>
       <r>    10.3337     0.9425    12.4007 </r>
       <r>    10.4146     1.2309    12.5004 </r>
       <r>    10.4956     1.3362    12.6086 </r>
       <r>    10.5765     1.1899    12.7049 </r>
       <r>    10.6575     1.1468    12.7977 </r>
       <r>    10.7385     1.2360    12.8978 </r>
       <r>    10.8194     1.1966    12.9947 </r>
       <r>    10.9004     1.2826    13.0985 </r>
       <r>    10.9813     1.5037    13.2203 </r>
       <r>    11.0623     1.5282    13.3440 </r>
       <r>    11.1433     1.0773    13.4312 </r>
       <r>    11.2242     0.8291    13.4983 </r>
       <r>    11.3052     0.9888    13.5784 </r>
       <r>    11.3861     1.0469    13.6631 </r>
       <r>    11.4671     0.8790    13.7343 </r>
       <r>    11.5481     1.2051    13.8319 </r>
       <r>    11.6290     1.3649    13.9424 </r>
       <r>    11.7100     1.0995    14.0314 </r>
       <r>    11.7909     1.2742    14.1345 </r>
       <r>    11.8719     1.3950    14.2475 </r>
       <r>    11.9528     1.1506    14.3406 </r>
       <r>    12.0338     0.7870    14.4043 </r>
       <r>    12.1148     0.5669    14.4502 </r>
       <r>    12.1957     0.6536    14.5031 </r>
       <r>    12.2767     0.7775    14.5661 </r>
       <r>    12.3576     0.7718    14.6286 </r>
       <r>    12.4386     0.8013    14.6934 </r>
       <r>    12.5196     1.0060    14.7749 </r>
       <r>    12.6005     1.1354    14.8668 </r>
       <r>    12.6815     1.1544    14.9603 </r>
       <r>    12.7624     1.3883    15.0727 </r>
       <r>    12.8434     1.1339    15.1645 </r>
       <r>    12.9244     0.5928    15.2125 </r>
       <r>    13.0053     0.4067    15.2454 </r>
       <r>    13.0863     0.3791    15.2761 </r>
       <r>    13.1672     0.4059    15.3089 </r>
       <r>    13.2482     0.4253    15.3434 </r>
       <r>    13.3291     0.2990    15.3676 </r>
       <r>    13.4101     0.4855    15.4069 </r>
       <r>    13.4911     0.6199    15.4571 </r>
       <r>    13.5720     0.5148    15.4987 </r>
       <r>    13.6530     1.0412    15.5830 </r>
       <r>    13.7339     1.2911    15.6876 </r>
       <r>    13.8149     0.6208    15.7378 </r>
       <r>    13.8959     0.2276    15.7562 </r>
       <r>    13.9768     0.2389    15.7756 </r>
       <r>    14.0578     0.1406    15.7870 </r>
       <r>    14.1387     0.1443    15.7986 </r>
       <r>    14.2197     0.2136    15.8159 </r>
       <r>    14.3007     0.1653    15.8293 </r>
       <r>    14.3816     0.2230    15.8474 </r>
       <r>    14.4626     0.1353    15.8583 </r>
       <r>    14.5435     0.1827    15.8731 </r>
       <r>    14.6245     0.4453    15.9092 </r>
       <r>    14.7055     0.4321    15.9442 </r>
       <r>    14.7864     0.0611    15.9491 </r>
       <r>    14.8674    -0.0174    15.9477 </r>
       <r>    14.9483    -0.0047    15.9473 </r>
       <r>    15.0293     0.0061    15.9478 </r>
       <r>    15.1102     0.0393    15.9510 </r>
       <r>    15.1912     0.0475    15.9548 </r>
       <r>    15.2722     0.1323    15.9656 </r>
       <r>    15.3531     0.1342    15.9764 </r>
       <r>    15.4341     0.0338    15.9791 </r>
       <r>    15.5150     0.1186    15.9888 </r>
       <r>    15.5960     0.1093    15.9976 </r>
       <r>    15.6770     0.0161    15.9989 </r>
       <r>    15.7579    -0.0044    15.9985 </r>
       <r>    15.8389    -0.0011    15.9985 </r>
       <r>    15.9198     0.0054    15.9989 </r>
       <r>    16.0008     0.0114    15.9998 </r>
       <r>    16.0818     0.0029    16.0001 </r>
       <r>    16.1627    -0.0005    16.0000 </r>
       <r>    16.2437    -0.0001    16.0000 </r>
       <r>    16.3246    -0.0000    16.0000 </r>
       <r>    16.4056    -0.0000    16.0000 </r>
       <r>    16.4865    -0.0000    16.0000 </r>
       <r>    16.5675    -0.0000    16.0000 </r>
       <r>    16.6485     0.0000    16.0000 </r>
       <r>    16.7294     0.0000    16.0000 </r>
       <r>    16.8104     0.0000    16.0000 </r>
       <r>    16.8913     0.0000    16.0000 </r>
       <r>    16.9723     0.0000    16.0000 </r>
       <r>    17.0533     0.0000    16.0000 </r>
      </set>
     </set>
    </array>
   </total>
  </dos>
 </calculation>
 <structure name="finalpos" >
  <crystal>
   <varray name="basis" >
    <v>       2.71500000       2.71500000       0.00000000 </v>
    <v>       0.00000000       2.71500000       2.71500000 </v>
    <v>       2.71500000       0.00000000       2.71500000 </v>
   </varray>
   <i name="volume">     40.02575175 </i>
   <varray name="rec_basis" >
    <v>       0.18416206       0.18416206      -0.18416206 </v>
    <v>      -0.18416206       0.18416206       0.18416206 </v>
    <v>       0.18416206      -0.18416206       0.18416206 </v>
   </varray>
  </crystal>
  <varray name="positions" >
   <v>       0.00000000       0.00000000       0.00000000 </v>
   <v>       0.25000000       0.25000000       0.25000000 </v>
  </varray>
 </structure>
</modeling>
