<?xml version="1.0" encoding="ISO-8859-1"?>
<modeling>
 <generator>
  <i name="program" type="string">vasp </i>
  <i name="version" type="string">5.4.1  </i>
  <i name="subversion" type="string">24Jun15 (build Mar  6 2017 20:45:23) complex                          parallel </i>
  <i name="platform" type="string">IFC91_ompi </i>
  <i name="date" type="string">2017 11 22 </i>
  <i name="time" type="string">17:42:19 </i>
 </generator>
 <incar>
  <i type="string" name="PREC">accurate</i>
  <i type="string" name="ALGO"> Normal</i>
  <i type="int" name="ISPIN">     1</i>
  <i type="int" name="ICHARG">    11</i>
  <i type="int" name="NELM">   100</i>
  <i type="int" name="IBRION">    -1</i>
  <i name="EDIFF">      0.00000001</i>
  <i type="int" name="NSW">     0</i>
  <i type="int" name="ISIF">     3</i>
  <i name="ENCUT">    300.00000000</i>
  <i type="logical" name="LREAL"> F  </i>
  <i type="int" name="ISMEAR">     2</i>
  <i name="SIGMA">      0.10000000</i>
  <i type="int" name="NWRITE">     3</i>
  <i type="logical" name="LWAVE"> T  </i>
  <i type="logical" name="LVTOT"> T  </i>
  <i type="logical" name="LVHAR"> F  </i>
  <v type="int" name="KPOINT_BSE">    -1     0     0     0</v>
  <i type="int" name="NELM">   100</i>
 </incar>
 <kpoints>
  <generation param="Gamma">
   <v type="int" name="divisions">      16       16       16 </v>
   <v name="usershift">      0.00000000       0.00000000       0.00000000 </v>
   <v name="genvec1">      0.06250000       0.00000000       0.00000000 </v>
   <v name="genvec2">      0.00000000       0.06250000       0.00000000 </v>
   <v name="genvec3">      0.00000000       0.00000000       0.06250000 </v>
   <v name="shift">      0.00000000       0.00000000       0.00000000 </v>
  </generation>
  <varray name="kpointlist" >
   <v>       0.00000000       0.00000000       0.00000000 </v>
   <v>       0.06250000       0.00000000       0.00000000 </v>
   <v>       0.12500000       0.00000000       0.00000000 </v>
   <v>       0.18750000       0.00000000       0.00000000 </v>
   <v>       0.25000000       0.00000000       0.00000000 </v>
   <v>       0.31250000       0.00000000       0.00000000 </v>
   <v>       0.37500000       0.00000000       0.00000000 </v>
   <v>       0.43750000       0.00000000       0.00000000 </v>
   <v>       0.50000000       0.00000000       0.00000000 </v>
   <v>       0.06250000       0.06250000       0.00000000 </v>
   <v>       0.12500000       0.06250000       0.00000000 </v>
   <v>       0.18750000       0.06250000       0.00000000 </v>
   <v>       0.25000000       0.06250000       0.00000000 </v>
   <v>       0.31250000       0.06250000       0.00000000 </v>
   <v>       0.37500000       0.06250000       0.00000000 </v>
   <v>       0.43750000       0.06250000       0.00000000 </v>
   <v>       0.50000000       0.06250000       0.00000000 </v>
   <v>      -0.43750000       0.06250000       0.00000000 </v>
   <v>      -0.37500000       0.06250000       0.00000000 </v>
   <v>      -0.31250000       0.06250000       0.00000000 </v>
   <v>      -0.25000000       0.06250000       0.00000000 </v>
   <v>      -0.18750000       0.06250000       0.00000000 </v>
   <v>      -0.12500000       0.06250000       0.00000000 </v>
   <v>      -0.06250000       0.06250000       0.00000000 </v>
   <v>       0.12500000       0.12500000       0.00000000 </v>
   <v>       0.18750000       0.12500000       0.00000000 </v>
   <v>       0.25000000       0.12500000       0.00000000 </v>
   <v>       0.31250000       0.12500000       0.00000000 </v>
   <v>       0.37500000       0.12500000       0.00000000 </v>
   <v>       0.43750000       0.12500000       0.00000000 </v>
   <v>       0.50000000       0.12500000       0.00000000 </v>
   <v>      -0.43750000       0.12500000       0.00000000 </v>
   <v>      -0.37500000       0.12500000       0.00000000 </v>
   <v>      -0.31250000       0.12500000       0.00000000 </v>
   <v>      -0.25000000       0.12500000       0.00000000 </v>
   <v>      -0.18750000       0.12500000       0.00000000 </v>
   <v>      -0.12500000       0.12500000       0.00000000 </v>
   <v>       0.18750000       0.18750000       0.00000000 </v>
   <v>       0.25000000       0.18750000       0.00000000 </v>
   <v>       0.31250000       0.18750000       0.00000000 </v>
   <v>       0.37500000       0.18750000       0.00000000 </v>
   <v>       0.43750000       0.18750000       0.00000000 </v>
   <v>       0.50000000       0.18750000       0.00000000 </v>
   <v>      -0.43750000       0.18750000       0.00000000 </v>
   <v>      -0.37500000       0.18750000       0.00000000 </v>
   <v>      -0.31250000       0.18750000       0.00000000 </v>
   <v>      -0.25000000       0.18750000       0.00000000 </v>
   <v>      -0.18750000       0.18750000       0.00000000 </v>
   <v>       0.25000000       0.25000000       0.00000000 </v>
   <v>       0.31250000       0.25000000       0.00000000 </v>
   <v>       0.37500000       0.25000000       0.00000000 </v>
   <v>       0.43750000       0.25000000       0.00000000 </v>
   <v>       0.50000000       0.25000000       0.00000000 </v>
   <v>      -0.43750000       0.25000000       0.00000000 </v>
   <v>      -0.37500000       0.25000000       0.00000000 </v>
   <v>      -0.31250000       0.25000000       0.00000000 </v>
   <v>      -0.25000000       0.25000000       0.00000000 </v>
   <v>       0.31250000       0.31250000       0.00000000 </v>
   <v>       0.37500000       0.31250000       0.00000000 </v>
   <v>       0.43750000       0.31250000       0.00000000 </v>
   <v>       0.50000000       0.31250000       0.00000000 </v>
   <v>      -0.43750000       0.31250000       0.00000000 </v>
   <v>      -0.37500000       0.31250000       0.00000000 </v>
   <v>      -0.31250000       0.31250000       0.00000000 </v>
   <v>       0.37500000       0.37500000       0.00000000 </v>
   <v>       0.43750000       0.37500000       0.00000000 </v>
   <v>       0.50000000       0.37500000       0.00000000 </v>
   <v>      -0.43750000       0.37500000       0.00000000 </v>
   <v>      -0.37500000       0.37500000       0.00000000 </v>
   <v>       0.43750000       0.43750000       0.00000000 </v>
   <v>       0.50000000       0.43750000       0.00000000 </v>
   <v>      -0.43750000       0.43750000       0.00000000 </v>
   <v>       0.50000000       0.50000000       0.00000000 </v>
   <v>       0.18750000       0.12500000       0.06250000 </v>
   <v>       0.25000000       0.12500000       0.06250000 </v>
   <v>       0.31250000       0.12500000       0.06250000 </v>
   <v>       0.37500000       0.12500000       0.06250000 </v>
   <v>       0.43750000       0.12500000       0.06250000 </v>
   <v>       0.50000000       0.12500000       0.06250000 </v>
   <v>      -0.43750000       0.12500000       0.06250000 </v>
   <v>       0.25000000       0.18750000       0.06250000 </v>
   <v>       0.31250000       0.18750000       0.06250000 </v>
   <v>       0.37500000       0.18750000       0.06250000 </v>
   <v>       0.43750000       0.18750000       0.06250000 </v>
   <v>       0.50000000       0.18750000       0.06250000 </v>
   <v>      -0.43750000       0.18750000       0.06250000 </v>
   <v>      -0.37500000       0.18750000       0.06250000 </v>
   <v>      -0.31250000       0.18750000       0.06250000 </v>
   <v>      -0.25000000       0.18750000       0.06250000 </v>
   <v>      -0.18750000       0.18750000       0.06250000 </v>
   <v>      -0.12500000       0.18750000       0.06250000 </v>
   <v>       0.31250000       0.25000000       0.06250000 </v>
   <v>       0.37500000       0.25000000       0.06250000 </v>
   <v>       0.43750000       0.25000000       0.06250000 </v>
   <v>       0.50000000       0.25000000       0.06250000 </v>
   <v>      -0.43750000       0.25000000       0.06250000 </v>
   <v>      -0.37500000       0.25000000       0.06250000 </v>
   <v>      -0.31250000       0.25000000       0.06250000 </v>
   <v>      -0.25000000       0.25000000       0.06250000 </v>
   <v>      -0.18750000       0.25000000       0.06250000 </v>
   <v>       0.37500000       0.31250000       0.06250000 </v>
   <v>       0.43750000       0.31250000       0.06250000 </v>
   <v>       0.50000000       0.31250000       0.06250000 </v>
   <v>      -0.43750000       0.31250000       0.06250000 </v>
   <v>      -0.37500000       0.31250000       0.06250000 </v>
   <v>      -0.31250000       0.31250000       0.06250000 </v>
   <v>      -0.25000000       0.31250000       0.06250000 </v>
   <v>       0.43750000       0.37500000       0.06250000 </v>
   <v>       0.50000000       0.37500000       0.06250000 </v>
   <v>      -0.43750000       0.37500000       0.06250000 </v>
   <v>      -0.37500000       0.37500000       0.06250000 </v>
   <v>      -0.31250000       0.37500000       0.06250000 </v>
   <v>       0.50000000       0.43750000       0.06250000 </v>
   <v>      -0.43750000       0.43750000       0.06250000 </v>
   <v>      -0.37500000       0.43750000       0.06250000 </v>
   <v>      -0.43750000       0.50000000       0.06250000 </v>
   <v>       0.37500000       0.25000000       0.12500000 </v>
   <v>       0.43750000       0.25000000       0.12500000 </v>
   <v>       0.50000000       0.25000000       0.12500000 </v>
   <v>      -0.43750000       0.25000000       0.12500000 </v>
   <v>      -0.37500000       0.25000000       0.12500000 </v>
   <v>       0.43750000       0.31250000       0.12500000 </v>
   <v>       0.50000000       0.31250000       0.12500000 </v>
   <v>      -0.43750000       0.31250000       0.12500000 </v>
   <v>      -0.37500000       0.31250000       0.12500000 </v>
   <v>      -0.31250000       0.31250000       0.12500000 </v>
   <v>      -0.25000000       0.31250000       0.12500000 </v>
   <v>      -0.18750000       0.31250000       0.12500000 </v>
   <v>       0.50000000       0.37500000       0.12500000 </v>
   <v>      -0.43750000       0.37500000       0.12500000 </v>
   <v>      -0.37500000       0.37500000       0.12500000 </v>
   <v>      -0.31250000       0.37500000       0.12500000 </v>
   <v>      -0.25000000       0.37500000       0.12500000 </v>
   <v>      -0.43750000       0.43750000       0.12500000 </v>
   <v>      -0.37500000       0.43750000       0.12500000 </v>
   <v>      -0.31250000       0.43750000       0.12500000 </v>
   <v>      -0.37500000       0.50000000       0.12500000 </v>
   <v>      -0.43750000       0.37500000       0.18750000 </v>
   <v>      -0.37500000       0.37500000       0.18750000 </v>
   <v>      -0.31250000       0.37500000       0.18750000 </v>
   <v>      -0.37500000       0.43750000       0.18750000 </v>
   <v>      -0.31250000       0.43750000       0.18750000 </v>
   <v>      -0.25000000       0.43750000       0.18750000 </v>
   <v>      -0.31250000       0.50000000       0.18750000 </v>
   <v>      -0.25000000       0.50000000       0.25000000 </v>
  </varray>
  <varray name="weights" >
   <v>       0.00024414 </v>
   <v>       0.00195312 </v>
   <v>       0.00195312 </v>
   <v>       0.00195312 </v>
   <v>       0.00195312 </v>
   <v>       0.00195312 </v>
   <v>       0.00195312 </v>
   <v>       0.00195312 </v>
   <v>       0.00097656 </v>
   <v>       0.00146484 </v>
   <v>       0.00585938 </v>
   <v>       0.00585938 </v>
   <v>       0.00585938 </v>
   <v>       0.00585938 </v>
   <v>       0.00585938 </v>
   <v>       0.00585938 </v>
   <v>       0.00585938 </v>
   <v>       0.00585938 </v>
   <v>       0.00585938 </v>
   <v>       0.00585938 </v>
   <v>       0.00585938 </v>
   <v>       0.00585938 </v>
   <v>       0.00585938 </v>
   <v>       0.00292969 </v>
   <v>       0.00146484 </v>
   <v>       0.00585938 </v>
   <v>       0.00585938 </v>
   <v>       0.00585938 </v>
   <v>       0.00585938 </v>
   <v>       0.00585938 </v>
   <v>       0.00585938 </v>
   <v>       0.00585938 </v>
   <v>       0.00585938 </v>
   <v>       0.00585938 </v>
   <v>       0.00585938 </v>
   <v>       0.00585938 </v>
   <v>       0.00292969 </v>
   <v>       0.00146484 </v>
   <v>       0.00585938 </v>
   <v>       0.00585938 </v>
   <v>       0.00585938 </v>
   <v>       0.00585938 </v>
   <v>       0.00585938 </v>
   <v>       0.00585938 </v>
   <v>       0.00585938 </v>
   <v>       0.00585938 </v>
   <v>       0.00585938 </v>
   <v>       0.00292969 </v>
   <v>       0.00146484 </v>
   <v>       0.00585938 </v>
   <v>       0.00585938 </v>
   <v>       0.00585938 </v>
   <v>       0.00585938 </v>
   <v>       0.00585938 </v>
   <v>       0.00585938 </v>
   <v>       0.00585938 </v>
   <v>       0.00292969 </v>
   <v>       0.00146484 </v>
   <v>       0.00585938 </v>
   <v>       0.00585938 </v>
   <v>       0.00585938 </v>
   <v>       0.00585938 </v>
   <v>       0.00585938 </v>
   <v>       0.00292969 </v>
   <v>       0.00146484 </v>
   <v>       0.00585938 </v>
   <v>       0.00585938 </v>
   <v>       0.00585938 </v>
   <v>       0.00292969 </v>
   <v>       0.00146484 </v>
   <v>       0.00585938 </v>
   <v>       0.00292969 </v>
   <v>       0.00073242 </v>
   <v>       0.00585938 </v>
   <v>       0.01171875 </v>
   <v>       0.01171875 </v>
   <v>       0.01171875 </v>
   <v>       0.01171875 </v>
   <v>       0.01171875 </v>
   <v>       0.00585938 </v>
   <v>       0.00585938 </v>
   <v>       0.01171875 </v>
   <v>       0.01171875 </v>
   <v>       0.01171875 </v>
   <v>       0.01171875 </v>
   <v>       0.01171875 </v>
   <v>       0.01171875 </v>
   <v>       0.01171875 </v>
   <v>       0.01171875 </v>
   <v>       0.01171875 </v>
   <v>       0.00585938 </v>
   <v>       0.00585938 </v>
   <v>       0.01171875 </v>
   <v>       0.01171875 </v>
   <v>       0.01171875 </v>
   <v>       0.01171875 </v>
   <v>       0.01171875 </v>
   <v>       0.01171875 </v>
   <v>       0.01171875 </v>
   <v>       0.00585938 </v>
   <v>       0.00585938 </v>
   <v>       0.01171875 </v>
   <v>       0.01171875 </v>
   <v>       0.01171875 </v>
   <v>       0.01171875 </v>
   <v>       0.01171875 </v>
   <v>       0.00585938 </v>
   <v>       0.00585938 </v>
   <v>       0.01171875 </v>
   <v>       0.01171875 </v>
   <v>       0.01171875 </v>
   <v>       0.00585938 </v>
   <v>       0.00585938 </v>
   <v>       0.01171875 </v>
   <v>       0.00585938 </v>
   <v>       0.00292969 </v>
   <v>       0.00585938 </v>
   <v>       0.01171875 </v>
   <v>       0.01171875 </v>
   <v>       0.01171875 </v>
   <v>       0.00585938 </v>
   <v>       0.00585938 </v>
   <v>       0.01171875 </v>
   <v>       0.01171875 </v>
   <v>       0.01171875 </v>
   <v>       0.01171875 </v>
   <v>       0.01171875 </v>
   <v>       0.00585938 </v>
   <v>       0.00585938 </v>
   <v>       0.01171875 </v>
   <v>       0.01171875 </v>
   <v>       0.01171875 </v>
   <v>       0.00585938 </v>
   <v>       0.00585938 </v>
   <v>       0.01171875 </v>
   <v>       0.00585938 </v>
   <v>       0.00292969 </v>
   <v>       0.00585938 </v>
   <v>       0.01171875 </v>
   <v>       0.00585938 </v>
   <v>       0.00585938 </v>
   <v>       0.01171875 </v>
   <v>       0.00585938 </v>
   <v>       0.00292969 </v>
   <v>       0.00146484 </v>
  </varray>
 </kpoints>
 <parameters>
  <separator name="general" >
   <i type="string" name="SYSTEM">unknown system</i>
   <i type="logical" name="LCOMPAT"> F  </i>
  </separator>
  <separator name="electronic" >
   <i type="string" name="PREC">accura</i>
   <i name="ENMAX">    300.00000000</i>
   <i name="ENAUG">    291.05200000</i>
   <i name="EDIFF">      0.00000001</i>
   <i type="int" name="IALGO">    38</i>
   <i type="int" name="IWAVPR">    10</i>
   <i type="int" name="NBANDS">     5</i>
   <i name="NELECT">      3.00000000</i>
   <i type="int" name="TURBO">     0</i>
   <i type="int" name="IRESTART">     0</i>
   <i type="int" name="NREBOOT">     0</i>
   <i type="int" name="NMIN">     0</i>
   <i name="EREF">      0.00000000</i>
   <separator name="electronic smearing" >
    <i type="int" name="ISMEAR">     2</i>
    <i name="SIGMA">      0.10000000</i>
    <i name="KSPACING">      0.50000000</i>
    <i type="logical" name="KGAMMA"> T  </i>
   </separator>
   <separator name="electronic projectors" >
    <i type="logical" name="LREAL"> F  </i>
    <v name="ROPT">      0.00000000</v>
    <i type="int" name="LMAXPAW">  -100</i>
    <i type="int" name="LMAXMIX">     2</i>
    <i type="logical" name="NLSPLINE"> F  </i>
   </separator>
   <separator name="electronic startup" >
    <i type="int" name="ISTART">     0</i>
    <i type="int" name="ICHARG">    11</i>
    <i type="int" name="INIWAV">     1</i>
   </separator>
   <separator name="electronic spin" >
    <i type="int" name="ISPIN">     1</i>
    <i type="logical" name="LNONCOLLINEAR"> F  </i>
    <v name="MAGMOM">      1.00000000</v>
    <i name="NUPDOWN">     -1.00000000</i>
    <i type="logical" name="LSORBIT"> F  </i>
    <v name="SAXIS">      0.00000000      0.00000000      1.00000000</v>
    <i type="logical" name="LSPIRAL"> F  </i>
    <v name="QSPIRAL">      0.00000000      0.00000000      0.00000000</v>
    <i type="logical" name="LZEROZ"> F  </i>
   </separator>
   <separator name="electronic exchange-correlation" >
    <i type="logical" name="LASPH"> F  </i>
    <i type="logical" name="LMETAGGA"> F  </i>
   </separator>
   <separator name="electronic convergence" >
    <i type="int" name="NELM">   100</i>
    <i type="int" name="NELMDL">    -5</i>
    <i type="int" name="NELMIN">     2</i>
    <i name="ENINI">    300.00000000</i>
    <separator name="electronic convergence detail" >
     <i type="logical" name="LDIAG"> T  </i>
     <i type="logical" name="LSUBROT"> F  </i>
     <i name="WEIMIN">      0.00000000</i>
     <i name="EBREAK">      0.00000000</i>
     <i name="DEPER">      0.30000000</i>
     <i type="int" name="NRMM">     4</i>
     <i name="TIME">      0.40000000</i>
    </separator>
   </separator>
   <separator name="electronic mixer" >
    <i name="AMIX">      0.40000000</i>
    <i name="BMIX">      1.00000000</i>
    <i name="AMIN">      0.10000000</i>
    <i name="AMIX_MAG">      1.60000000</i>
    <i name="BMIX_MAG">      1.00000000</i>
    <separator name="electronic mixer details" >
     <i type="int" name="IMIX">     4</i>
     <i type="logical" name="MIXFIRST"> F  </i>
     <i type="int" name="MAXMIX">   -45</i>
     <i name="WC">    100.00000000</i>
     <i type="int" name="INIMIX">     1</i>
     <i type="int" name="MIXPRE">     1</i>
     <i type="int" name="MREMOVE">     5</i>
    </separator>
   </separator>
   <separator name="electronic dipolcorrection" >
    <i type="logical" name="LDIPOL"> F  </i>
    <i type="logical" name="LMONO"> F  </i>
    <i type="int" name="IDIPOL">     0</i>
    <i name="EPSILON">      1.00000000</i>
    <v name="DIPOL">   -100.00000000   -100.00000000   -100.00000000</v>
    <i name="EFIELD">      0.00000000</i>
   </separator>
  </separator>
  <separator name="grids" >
   <i type="int" name="NGX">    16</i>
   <i type="int" name="NGY">    16</i>
   <i type="int" name="NGZ">    16</i>
   <i type="int" name="NGXF">    32</i>
   <i type="int" name="NGYF">    32</i>
   <i type="int" name="NGZF">    32</i>
   <i type="logical" name="ADDGRID"> F  </i>
  </separator>
  <separator name="ionic" >
   <i type="int" name="NSW">     0</i>
   <i type="int" name="IBRION">    -1</i>
   <i type="int" name="ISIF">     3</i>
   <i name="PSTRESS">      0.00000000</i>
   <i name="EDIFFG">      0.00000010</i>
   <i type="int" name="NFREE">     0</i>
   <i name="POTIM">      0.50000000</i>
   <i name="SMASS">     -3.00000000</i>
   <i name="SCALEE">      1.00000000</i>
  </separator>
  <separator name="ionic md" >
   <i name="TEBEG">      0.00010000</i>
   <i name="TEEND">      0.00010000</i>
   <i type="int" name="NBLOCK">     1</i>
   <i type="int" name="KBLOCK">     1</i>
   <i type="int" name="NPACO">   256</i>
   <i name="APACO">     16.00000000</i>
  </separator>
  <separator name="symmetry" >
   <i type="int" name="ISYM">     2</i>
   <i name="SYMPREC">      0.00001000</i>
  </separator>
  <separator name="dos" >
   <i type="logical" name="LORBIT"> T  </i>
   <v name="RWIGS">     -1.00000000</v>
   <i type="int" name="NEDOS">   301</i>
   <i name="EMIN">     10.00000000</i>
   <i name="EMAX">    -10.00000000</i>
   <i name="EFERMI">      0.00000000</i>
  </separator>
  <separator name="writing" >
   <i type="int" name="NWRITE">     3</i>
   <i type="logical" name="LWAVE"> T  </i>
   <i type="logical" name="LCHARG"> T  </i>
   <i type="logical" name="LPARD"> F  </i>
   <i type="logical" name="LVTOT"> T  </i>
   <i type="logical" name="LVHAR"> F  </i>
   <i type="logical" name="LELF"> F  </i>
   <i type="logical" name="LOPTICS"> F  </i>
   <v name="STM">      0.00000000      0.00000000      0.00000000      0.00000000      0.00000000      0.00000000      0.00000000</v>
  </separator>
  <separator name="performance" >
   <i type="int" name="NPAR">     1</i>
   <i type="int" name="NSIM">     4</i>
   <i type="int" name="NBLK">    -1</i>
   <i type="logical" name="LPLANE"> T  </i>
   <i type="logical" name="LSCALAPACK"> T  </i>
   <i type="logical" name="LSCAAWARE"> F  </i>
   <i type="logical" name="LSCALU"> F  </i>
   <i type="logical" name="LASYNC"> F  </i>
   <i type="logical" name="LORBITALREAL"> F  </i>
  </separator>
  <separator name="miscellaneous" >
   <i type="int" name="IDIOT">     3</i>
   <i type="logical" name="LMUSIC"> F  </i>
   <v name="POMASS">     26.98100000</v>
   <v name="DARWINR">      0.00000000</v>
   <v name="DARWINV">      1.00000000</v>
   <i type="logical" name="LCORR"> T  </i>
  </separator>
  <i type="logical" name="GGA_COMPAT"> T  </i>
  <i type="logical" name="LBERRY"> F  </i>
  <i type="int" name="ICORELEVEL">     0</i>
  <i type="logical" name="LDAU"> F  </i>
  <i type="int" name="I_CONSTRAINED_M">     0</i>
  <separator name="electronic exchange-correlation" >
   <i type="string" name="GGA">--</i>
   <i type="int" name="VOSKOWN">     0</i>
   <i type="logical" name="LHFCALC"> F  </i>
   <i type="string" name="PRECFOCK"></i>
   <i type="logical" name="LSYMGRAD"> F  </i>
   <i type="logical" name="LHFONE"> F  </i>
   <i type="logical" name="LRHFCALC"> F  </i>
   <i type="logical" name="LTHOMAS"> F  </i>
   <i type="logical" name="LMODELHF"> F  </i>
   <i name="ENCUT4O">     -1.00000000</i>
   <i type="int" name="EXXOEP">     0</i>
   <i type="int" name="FOURORBIT">     0</i>
   <i name="AEXX">      0.00000000</i>
   <i name="HFALPHA">      0.00000000</i>
   <i name="MCALPHA">      0.00000000</i>
   <i name="ALDAX">      1.00000000</i>
   <i name="AGGAX">      1.00000000</i>
   <i name="ALDAC">      1.00000000</i>
   <i name="AGGAC">      1.00000000</i>
   <i type="int" name="NKREDX">     1</i>
   <i type="int" name="NKREDY">     1</i>
   <i type="int" name="NKREDZ">     1</i>
   <i type="logical" name="SHIFTRED"> F  </i>
   <i type="logical" name="ODDONLY"> F  </i>
   <i type="logical" name="EVENONLY"> F  </i>
   <i type="int" name="LMAXFOCK">     0</i>
   <i type="int" name="NMAXFOCKAE">     0</i>
   <i type="logical" name="LFOCKAEDFT"> F  </i>
   <i name="HFSCREEN">      0.00000000</i>
   <i name="HFSCREENC">      0.00000000</i>
   <i type="int" name="NBANDSGWLOW">     0</i>
  </separator>
  <separator name="vdW DFT" >
   <i type="logical" name="LUSE_VDW"> F  </i>
   <i name="Zab_VDW">     -0.84910000</i>
   <i name="PARAM1">      0.12340000</i>
   <i name="PARAM2">      1.00000000</i>
   <i name="PARAM3">      0.00000000</i>
  </separator>
  <separator name="model GW" >
   <i type="int" name="MODEL_GW">     0</i>
   <i name="MODEL_EPS0">      9.88705865</i>
   <i name="MODEL_ALPHA">      1.00000000</i>
  </separator>
  <separator name="linear response parameters" >
   <i type="logical" name="LEPSILON"> F  </i>
   <i type="logical" name="LRPA"> F  </i>
   <i type="logical" name="LNABLA"> F  </i>
   <i type="logical" name="LVEL"> F  </i>
   <i type="int" name="KINTER">     0</i>
   <i name="CSHIFT">      0.10000000</i>
   <i name="OMEGAMAX">     -1.00000000</i>
   <i name="DEG_THRESHOLD">      0.00200000</i>
  </separator>
  <separator name="orbital magnetization" >
   <i type="logical" name="NUCIND"> F  </i>
   <v name="MAGPOS">      0.00000000      0.00000000      0.00000000</v>
   <i type="logical" name="LNICSALL"> T  </i>
   <i type="logical" name="ORBITALMAG"> F  </i>
   <i type="logical" name="LMAGBLOCH"> F  </i>
   <i type="logical" name="LCHIMAG"> F  </i>
   <i type="logical" name="LGAUGE"> T  </i>
   <i type="int" name="MAGATOM">     0</i>
   <v name="MAGDIPOL">      0.00000000      0.00000000      0.00000000</v>
   <v name="AVECCONST">      0.00000000      0.00000000      0.00000000</v>
  </separator>
  <separator name="response functions" >
   <i type="logical" name="LADDER"> F  </i>
   <i type="logical" name="LFXC"> F  </i>
   <i type="logical" name="LHARTREE"> T  </i>
   <i type="int" name="IBSE">     0</i>
   <v type="int" name="KPOINT">    -1     0     0     0</v>
   <i type="logical" name="LTCTE"> F  </i>
   <i type="logical" name="LTETE"> F  </i>
   <i type="logical" name="LTRIPLET"> F  </i>
   <i type="logical" name="LFXCEPS"> F  </i>
   <i type="logical" name="LFXHEG"> F  </i>
   <i type="int" name="NATURALO">     0</i>
   <i type="logical" name="L2ORDER"> F  </i>
   <i type="logical" name="LUSEW"> F  </i>
   <i name="ENCUTGW">     -2.00000000</i>
   <i name="ENCUTGWSOFT">     -2.00000000</i>
   <i name="ENCUTLF">     -1.00000000</i>
   <i type="int" name="LMAXMP2">    -1</i>
   <i name="SCISSOR">      0.00000000</i>
   <i type="int" name="NOMEGA">     0</i>
   <i type="int" name="NOMEGAR">     0</i>
   <i type="int" name="NBANDSGW">    -1</i>
   <i type="int" name="NBANDSO">    -1</i>
   <i type="int" name="NBANDSV">    -1</i>
   <i type="int" name="NELM">   100</i>
   <i type="int" name="NELMHF">     1</i>
   <i type="int" name="DIM">     3</i>
   <i type="int" name="ANTIRES">     0</i>
   <i name="OMEGAMAX">    -30.00000000</i>
   <i name="OMEGAMIN">    -30.00000000</i>
   <i name="OMEGATL">   -200.00000000</i>
   <i type="int" name="OMEGAGRID">     0</i>
   <i name="CSHIFT">     -0.10000000</i>
   <i type="logical" name="SELFENERGY"> F  </i>
   <i type="logical" name="LSPECTRAL"> F  </i>
   <i type="logical" name="LSPECTRALGW"> F  </i>
   <i type="logical" name="LSINGLES"> F  </i>
   <i type="logical" name="LFERMIGW"> F  </i>
   <i type="logical" name="ODDONLYGW"> F  </i>
   <i type="logical" name="EVENONLYGW"> F  </i>
   <i type="int" name="NKREDLFX">     1</i>
   <i type="int" name="NKREDLFY">     1</i>
   <i type="int" name="NKREDLFZ">     1</i>
   <i type="int" name="MAXMEM">  1800</i>
   <i type="int" name="TELESCOPE">     0</i>
   <i type="int" name="TAUPAR">     1</i>
   <i type="int" name="OMEGAPAR">    -1</i>
   <i name="LAMBDA">      1.00000000</i>
  </separator>
  <separator name="External order field" >
   <i name="OFIELD_KAPPA">      0.00000000</i>
   <v name="OFIELD_K">      0.00000000      0.00000000      0.00000000</v>
   <i name="OFIELD_Q6_NEAR">      0.00000000</i>
   <i name="OFIELD_Q6_FAR">      0.00000000</i>
   <i name="OFIELD_A">      0.00000000</i>
  </separator>
 </parameters>
 <atominfo>
  <atoms>       1 </atoms>
  <types>       1 </types>
  <array name="atoms" >
   <dimension dim="1">ion</dimension>
   <field type="string">element</field>
   <field type="int">atomtype</field>
   <set>
    <rc><c>Al</c><c>   1</c></rc>
   </set>
  </array>
  <array name="atomtypes" >
   <dimension dim="1">type</dimension>
   <field type="int">atomspertype</field>
   <field type="string">element</field>
   <field>mass</field>
   <field>valence</field>
   <field type="string">pseudopotential</field>
   <set>
    <rc><c>   1</c><c>Al</c><c>     26.98100000</c><c>      3.00000000</c><c>  PAW_PBE Al 04Jan2001                  </c></rc>
   </set>
  </array>
 </atominfo>
 <structure name="initialpos" >
  <crystal>
   <varray name="basis" >
    <v>      -2.01973917       0.00000000       2.01973917 </v>
    <v>       0.00000000       2.01973917       2.01973917 </v>
    <v>      -2.01973917       2.01973917       0.00000000 </v>
   </varray>
   <i name="volume">     16.47843108 </i>
   <varray name="rec_basis" >
    <v>      -0.24755672      -0.24755672       0.24755672 </v>
    <v>       0.24755672       0.24755672       0.24755672 </v>
    <v>      -0.24755672       0.24755672      -0.24755672 </v>
   </varray>
  </crystal>
  <varray name="positions" >
   <v>       0.00000000       0.00000000       0.00000000 </v>
  </varray>
 </structure>
 <calculation>
  <scstep>
   <time name="dav">    0.58    0.57</time>
   <time name="total">    0.60    0.60</time>
   <energy>
    <i name="alphaZ">     -0.20383069 </i>
    <i name="ewald">    -73.54778172 </i>
    <i name="hartreedc">     -0.10453697 </i>
    <i name="XCdc">    -26.12881825 </i>
    <i name="pawpsdc">    150.41051697 </i>
    <i name="pawaedc">   -118.46974944 </i>
    <i name="eentropy">     -0.00040241 </i>
    <i name="bandstr">     11.86063028 </i>
    <i name="atom">     53.53762400 </i>
    <i name="e_fr_energy">     -2.64634822 </i>
    <i name="e_wo_entrp">     -2.64594581 </i>
    <i name="e_0_energy">     -2.64624761 </i>
   </energy>
  </scstep>
  <scstep>
   <time name="dav">    0.62    0.62</time>
   <time name="total">    0.62    0.62</time>
   <energy>
    <i name="e_fr_energy">     -3.74005419 </i>
    <i name="e_wo_entrp">     -3.74014518 </i>
    <i name="e_0_energy">     -3.74007694 </i>
   </energy>
  </scstep>
  <scstep>
   <time name="dav">    0.57    0.57</time>
   <time name="total">    0.58    0.58</time>
   <energy>
    <i name="e_fr_energy">     -3.74782070 </i>
    <i name="e_wo_entrp">     -3.74794565 </i>
    <i name="e_0_energy">     -3.74785194 </i>
   </energy>
  </scstep>
  <scstep>
   <time name="dav">    0.63    0.62</time>
   <time name="total">    0.63    0.63</time>
   <energy>
    <i name="e_fr_energy">     -3.74783336 </i>
    <i name="e_wo_entrp">     -3.74795837 </i>
    <i name="e_0_energy">     -3.74786461 </i>
   </energy>
  </scstep>
  <scstep>
   <time name="dav">    0.57    0.57</time>
   <time name="total">    0.58    0.58</time>
   <energy>
    <i name="e_fr_energy">     -3.74783340 </i>
    <i name="e_wo_entrp">     -3.74795841 </i>
    <i name="e_0_energy">     -3.74786465 </i>
   </energy>
  </scstep>
  <scstep>
   <time name="dav">    0.62    0.62</time>
   <time name="total">    0.62    0.62</time>
   <energy>
    <i name="alphaZ">     -0.20383069 </i>
    <i name="ewald">    -73.54778172 </i>
    <i name="hartreedc">     -0.10453697 </i>
    <i name="XCdc">    -26.12881825 </i>
    <i name="pawpsdc">    150.41051697 </i>
    <i name="pawaedc">   -118.46974944 </i>
    <i name="eentropy">      0.00012501 </i>
    <i name="bandstr">     10.75861767 </i>
    <i name="atom">     53.53762400 </i>
    <i name="e_fr_energy">     -3.74783340 </i>
    <i name="e_wo_entrp">     -3.74795841 </i>
    <i name="e_0_energy">     -3.74786465 </i>
   </energy>
  </scstep>
  <structure>
   <crystal>
    <varray name="basis" >
     <v>      -2.01973917       0.00000000       2.01973917 </v>
     <v>       0.00000000       2.01973917       2.01973917 </v>
     <v>      -2.01973917       2.01973917       0.00000000 </v>
    </varray>
    <i name="volume">     16.47843108 </i>
    <varray name="rec_basis" >
     <v>      -0.24755672      -0.24755672       0.24755672 </v>
     <v>       0.24755672       0.24755672       0.24755672 </v>
     <v>      -0.24755672       0.24755672      -0.24755672 </v>
    </varray>
   </crystal>
   <varray name="positions" >
    <v>       0.00000000       0.00000000       0.00000000 </v>
   </varray>
  </structure>
  <varray name="forces" >
   <v>       0.00000000       0.00000000       0.00000000 </v>
  </varray>
  <varray name="stress" >
   <v>      -0.64538398      -0.00000000       0.00000000 </v>
   <v>       0.00000000      -0.64538398       0.00000000 </v>
   <v>       0.00000000      -0.00000000      -0.64538398 </v>
  </varray>
  <energy>
   <i name="e_fr_energy">     -3.74783340 </i>
   <i name="e_wo_entrp">     -3.74786465 </i>
   <i name="e_0_energy">      0.00012501 </i>
  </energy>
  <time name="totalsc">    3.89    3.89</time>
  <eigenvalues>
   <array>
    <dimension dim="1">band</dimension>
    <dimension dim="2">kpoint</dimension>
    <dimension dim="3">spin</dimension>
    <field>eigene</field>
    <field>occ</field>
    <set>
     <set comment="spin 1">
      <set comment="kpoint 1">
       <r>   -3.1287    1.0000 </r>
       <r>   20.6806    0.0000 </r>
       <r>   20.6806    0.0000 </r>
       <r>   20.6806    0.0000 </r>
       <r>   22.1444    0.0000 </r>
      </set>
      <set comment="kpoint 2">
       <r>   -3.0224    1.0000 </r>
       <r>   18.8782    0.0000 </r>
       <r>   20.2989    0.0000 </r>
       <r>   20.2989    0.0000 </r>
       <r>   22.6954    0.0000 </r>
      </set>
      <set comment="kpoint 3">
       <r>   -2.7040    1.0000 </r>
       <r>   16.3524    0.0000 </r>
       <r>   19.7219    0.0000 </r>
       <r>   19.7219    0.0000 </r>
       <r>   22.7586    0.0000 </r>
      </set>
      <set comment="kpoint 4">
       <r>   -2.1749    1.0000 </r>
       <r>   13.8456    0.0000 </r>
       <r>   19.2535    0.0000 </r>
       <r>   19.2535    0.0000 </r>
       <r>   22.5582    0.0000 </r>
      </set>
      <set comment="kpoint 5">
       <r>   -1.4375    1.0000 </r>
       <r>   11.4609    0.0000 </r>
       <r>   18.9476    0.0000 </r>
       <r>   18.9476    0.0000 </r>
       <r>   22.3959    0.0000 </r>
      </set>
      <set comment="kpoint 6">
       <r>   -0.4949    1.0000 </r>
       <r>    9.2238    0.0000 </r>
       <r>   18.8121    0.0000 </r>
       <r>   18.8121    0.0000 </r>
       <r>   21.7357    0.0000 </r>
      </set>
      <set comment="kpoint 7">
       <r>    0.6489    1.0000 </r>
       <r>    7.1500    1.0000 </r>
       <r>   18.8543    0.0000 </r>
       <r>   18.8543    0.0000 </r>
       <r>   20.8113    0.0000 </r>
      </set>
      <set comment="kpoint 8">
       <r>    1.9885    1.0000 </r>
       <r>    5.2507    1.0000 </r>
       <r>   19.0765    0.0000 </r>
       <r>   19.0766    0.0000 </r>
       <r>   20.0585    0.0000 </r>
      </set>
      <set comment="kpoint 9">
       <r>    3.4174    1.0000 </r>
       <r>    3.6360    1.0000 </r>
       <r>   19.4398    0.0000 </r>
       <r>   19.4408    0.0000 </r>
       <r>   19.5196    0.0000 </r>
      </set>
      <set comment="kpoint 10">
       <r>   -2.9869    1.0000 </r>
       <r>   19.4685    0.0000 </r>
       <r>   19.4685    0.0000 </r>
       <r>   19.7525    0.0000 </r>
       <r>   21.8080    0.0000 </r>
      </set>
      <set comment="kpoint 11">
       <r>   -2.7393    1.0000 </r>
       <r>   17.2304    0.0000 </r>
       <r>   18.7542    0.0000 </r>
       <r>   19.8186    0.0000 </r>
       <r>   22.0212    0.0000 </r>
      </set>
      <set comment="kpoint 12">
       <r>   -2.2805    1.0000 </r>
       <r>   14.7356    0.0000 </r>
       <r>   18.2012    0.0000 </r>
       <r>   19.5337    0.0000 </r>
       <r>   22.5175    0.0000 </r>
      </set>
      <set comment="kpoint 13">
       <r>   -1.6127    1.0000 </r>
       <r>   12.3163    0.0000 </r>
       <r>   17.8229    0.0000 </r>
       <r>   19.2346    0.0000 </r>
       <r>   21.3908    0.0000 </r>
      </set>
      <set comment="kpoint 14">
       <r>   -0.7388    1.0000 </r>
       <r>   10.0337    0.0000 </r>
       <r>   17.6206    0.0000 </r>
       <r>   19.0650    0.0000 </r>
       <r>   20.2271    0.0000 </r>
      </set>
      <set comment="kpoint 15">
       <r>    0.3377    1.0000 </r>
       <r>    7.9079    1.0088 </r>
       <r>   17.5994    0.0000 </r>
       <r>   19.0536    0.0000 </r>
       <r>   19.2302    0.0000 </r>
      </set>
      <set comment="kpoint 16">
       <r>    1.6119    1.0000 </r>
       <r>    5.9517    1.0000 </r>
       <r>   17.7574    0.0000 </r>
       <r>   18.3827    0.0000 </r>
       <r>   19.2443    0.0000 </r>
      </set>
      <set comment="kpoint 17">
       <r>    3.0728    1.0000 </r>
       <r>    4.1804    1.0000 </r>
       <r>   17.7320    0.0000 </r>
       <r>   18.0966    0.0000 </r>
       <r>   19.6041    0.0000 </r>
      </set>
      <set comment="kpoint 18">
       <r>    2.5674    1.0000 </r>
       <r>    4.7476    1.0000 </r>
       <r>   17.2635    0.0000 </r>
       <r>   18.6166    0.0000 </r>
       <r>   20.1444    0.0000 </r>
      </set>
      <set comment="kpoint 19">
       <r>    1.1656    1.0000 </r>
       <r>    6.5837    1.0000 </r>
       <r>   16.9792    0.0000 </r>
       <r>   19.3111    0.0000 </r>
       <r>   20.3061    0.0000 </r>
      </set>
      <set comment="kpoint 20">
       <r>   -0.0434    1.0000 </r>
       <r>    8.5971    0.0000 </r>
       <r>   16.8802    0.0000 </r>
       <r>   20.0807    0.0000 </r>
       <r>   20.3095    0.0000 </r>
      </set>
      <set comment="kpoint 21">
       <r>   -1.0528    1.0000 </r>
       <r>   10.7752    0.0000 </r>
       <r>   16.9671    0.0000 </r>
       <r>   20.2414    0.0000 </r>
       <r>   21.2633    0.0000 </r>
      </set>
      <set comment="kpoint 22">
       <r>   -1.8584    1.0000 </r>
       <r>   13.1001    0.0000 </r>
       <r>   17.2398    0.0000 </r>
       <r>   20.4762    0.0000 </r>
       <r>   22.4195    0.0000 </r>
      </set>
      <set comment="kpoint 23">
       <r>   -2.4568    1.0000 </r>
       <r>   15.5331    0.0000 </r>
       <r>   17.7067    0.0000 </r>
       <r>   20.8212    0.0000 </r>
       <r>   22.9246    0.0000 </r>
      </set>
      <set comment="kpoint 24">
       <r>   -2.8454    1.0000 </r>
       <r>   17.8035    0.0000 </r>
       <r>   18.5424    0.0000 </r>
       <r>   20.9607    0.0000 </r>
       <r>   22.3190    0.0000 </r>
      </set>
      <set comment="kpoint 25">
       <r>   -2.5627    1.0000 </r>
       <r>   17.9525    0.0000 </r>
       <r>   17.9525    0.0000 </r>
       <r>   18.2015    0.0000 </r>
       <r>   20.9909    0.0000 </r>
      </set>
      <set comment="kpoint 26">
       <r>   -2.1749    1.0000 </r>
       <r>   15.7270    0.0000 </r>
       <r>   17.3252    0.0000 </r>
       <r>   18.4940    0.0000 </r>
       <r>   20.9463    0.0000 </r>
      </set>
      <set comment="kpoint 27">
       <r>   -1.5777    1.0000 </r>
       <r>   13.3268    0.0000 </r>
       <r>   16.8795    0.0000 </r>
       <r>   18.4041    0.0000 </r>
       <r>   19.6451    0.0000 </r>
      </set>
      <set comment="kpoint 28">
       <r>   -0.7737    1.0000 </r>
       <r>   11.0193    0.0000 </r>
       <r>   16.6138    0.0000 </r>
       <r>   18.1790    0.0000 </r>
       <r>   18.4505    0.0000 </r>
      </set>
      <set comment="kpoint 29">
       <r>    0.2337    1.0000 </r>
       <r>    8.8520    0.0000 </r>
       <r>   16.5294    0.0000 </r>
       <r>   17.2542    0.0000 </r>
       <r>   18.2467    0.0000 </r>
      </set>
      <set comment="kpoint 30">
       <r>    1.4400    1.0000 </r>
       <r>    6.8458    1.0000 </r>
       <r>   16.3487    0.0000 </r>
       <r>   16.6261    0.0000 </r>
       <r>   18.3715    0.0000 </r>
      </set>
      <set comment="kpoint 31">
       <r>    2.8381    1.0000 </r>
       <r>    5.0154    1.0000 </r>
       <r>   15.6242    0.0000 </r>
       <r>   16.9035    0.0000 </r>
       <r>   18.6872    0.0000 </r>
      </set>
      <set comment="kpoint 32">
       <r>    3.3425    1.0000 </r>
       <r>    4.4485    1.0000 </r>
       <r>   15.0875    0.0000 </r>
       <r>   17.3632    0.0000 </r>
       <r>   19.1891    0.0000 </r>
      </set>
      <set comment="kpoint 33">
       <r>    1.8857    1.0000 </r>
       <r>    6.2116    1.0000 </r>
       <r>   14.7423    0.0000 </r>
       <r>   18.0039    0.0000 </r>
       <r>   19.8748    0.0000 </r>
      </set>
      <set comment="kpoint 34">
       <r>    0.6142    1.0000 </r>
       <r>    8.1556   -0.0516 </r>
       <r>   14.5907    0.0000 </r>
       <r>   18.8214    0.0000 </r>
       <r>   20.7365    0.0000 </r>
      </set>
      <set comment="kpoint 35">
       <r>   -0.4602    1.0000 </r>
       <r>   10.2560    0.0000 </r>
       <r>   14.6426    0.0000 </r>
       <r>   19.8085    0.0000 </r>
       <r>   21.7666    0.0000 </r>
      </set>
      <set comment="kpoint 36">
       <r>   -1.3325    1.0000 </r>
       <r>   12.4629    0.0000 </r>
       <r>   14.9309    0.0000 </r>
       <r>   20.9370    0.0000 </r>
       <r>   21.9149    0.0000 </r>
      </set>
      <set comment="kpoint 37">
       <r>   -1.9990    1.0000 </r>
       <r>   14.4775    0.0000 </r>
       <r>   15.7272    0.0000 </r>
       <r>   21.7851    0.0000 </r>
       <r>   22.0951    0.0000 </r>
      </set>
      <set comment="kpoint 38">
       <r>   -1.8584    1.0000 </r>
       <r>   16.6325    0.0000 </r>
       <r>   16.6325    0.0000 </r>
       <r>   16.7466    0.0000 </r>
       <r>   19.4253    0.0000 </r>
      </set>
      <set comment="kpoint 39">
       <r>   -1.3325    1.0000 </r>
       <r>   14.4473    0.0000 </r>
       <r>   16.1207    0.0000 </r>
       <r>   17.2313    0.0000 </r>
       <r>   17.9210    0.0000 </r>
      </set>
      <set comment="kpoint 40">
       <r>   -0.5996    1.0000 </r>
       <r>   12.1607    0.0000 </r>
       <r>   15.7924    0.0000 </r>
       <r>   16.5213    0.0000 </r>
       <r>   17.3462    0.0000 </r>
      </set>
      <set comment="kpoint 41">
       <r>    0.3373    1.0000 </r>
       <r>    9.9721    0.0000 </r>
       <r>   15.3626    0.0000 </r>
       <r>   15.6457    0.0000 </r>
       <r>   17.3152    0.0000 </r>
      </set>
      <set comment="kpoint 42">
       <r>    1.4734    1.0000 </r>
       <r>    7.9263    1.0239 </r>
       <r>   14.3765    0.0000 </r>
       <r>   15.6795    0.0000 </r>
       <r>   17.4087    0.0000 </r>
      </set>
      <set comment="kpoint 43">
       <r>    2.8028    1.0000 </r>
       <r>    6.0461    1.0000 </r>
       <r>   13.5790    0.0000 </r>
       <r>   15.8959    0.0000 </r>
       <r>   17.6777    0.0000 </r>
      </set>
      <set comment="kpoint 44">
       <r>    4.2033    1.0000 </r>
       <r>    4.4584    1.0000 </r>
       <r>   12.9740    0.0000 </r>
       <r>   16.2935    0.0000 </r>
       <r>   18.1299    0.0000 </r>
      </set>
      <set comment="kpoint 45">
       <r>    2.8050    1.0000 </r>
       <r>    6.0326    1.0000 </r>
       <r>   12.5686    0.0000 </r>
       <r>   16.8735    0.0000 </r>
       <r>   18.7704    0.0000 </r>
      </set>
      <set comment="kpoint 46">
       <r>    1.4745    1.0000 </r>
       <r>    7.8910    1.0001 </r>
       <r>   12.3752    0.0000 </r>
       <r>   17.6347    0.0000 </r>
       <r>   19.5905    0.0000 </r>
      </set>
      <set comment="kpoint 47">
       <r>    0.3376    1.0000 </r>
       <r>    9.8585    0.0000 </r>
       <r>   12.4393    0.0000 </r>
       <r>   18.5751    0.0000 </r>
       <r>   20.5821    0.0000 </r>
      </set>
      <set comment="kpoint 48">
       <r>   -0.5995    1.0000 </r>
       <r>   11.6066    0.0000 </r>
       <r>   13.0761    0.0000 </r>
       <r>   19.6863    0.0000 </r>
       <r>   21.7191    0.0000 </r>
      </set>
      <set comment="kpoint 49">
       <r>   -0.8784    1.0000 </r>
       <r>   15.5140    0.0000 </r>
       <r>   15.5453    0.0000 </r>
       <r>   15.5453    0.0000 </r>
       <r>   16.2901    0.0000 </r>
      </set>
      <set comment="kpoint 50">
       <r>   -0.2172    1.0000 </r>
       <r>   13.4098    0.0000 </r>
       <r>   14.8579    0.0000 </r>
       <r>   15.1545    0.0000 </r>
       <r>   16.2254    0.0000 </r>
      </set>
      <set comment="kpoint 51">
       <r>    0.6475    1.0000 </r>
       <r>   11.2440    0.0000 </r>
       <r>   13.6114    0.0000 </r>
       <r>   14.9459    0.0000 </r>
       <r>   16.4241    0.0000 </r>
      </set>
      <set comment="kpoint 52">
       <r>    1.7114    1.0000 </r>
       <r>    9.1793    0.0000 </r>
       <r>   12.5505    0.0000 </r>
       <r>   14.9188    0.0000 </r>
       <r>   16.5383    0.0000 </r>
      </set>
      <set comment="kpoint 53">
       <r>    2.9685    1.0000 </r>
       <r>    7.2613    1.0000 </r>
       <r>   11.6813    0.0000 </r>
       <r>   15.0735    0.0000 </r>
       <r>   16.7730    0.0000 </r>
      </set>
      <set comment="kpoint 54">
       <r>    4.4004    1.0000 </r>
       <r>    5.5194    1.0000 </r>
       <r>   11.0103    0.0000 </r>
       <r>   15.4101    0.0000 </r>
       <r>   17.1771    0.0000 </r>
      </set>
      <set comment="kpoint 55">
       <r>    3.9184    1.0000 </r>
       <r>    6.0384    1.0000 </r>
       <r>   10.5552    0.0000 </r>
       <r>   15.9295    0.0000 </r>
       <r>   17.7673    0.0000 </r>
      </set>
      <set comment="kpoint 56">
       <r>    2.5333    1.0000 </r>
       <r>    7.7590    0.9997 </r>
       <r>   10.3658    0.0000 </r>
       <r>   16.6295    0.0000 </r>
       <r>   18.5405    0.0000 </r>
      </set>
      <set comment="kpoint 57">
       <r>    1.3371    1.0000 </r>
       <r>    9.2560    0.0000 </r>
       <r>   10.7754    0.0000 </r>
       <r>   17.5123    0.0000 </r>
       <r>   19.4856    0.0000 </r>
      </set>
      <set comment="kpoint 58">
       <r>    0.3711    1.0000 </r>
       <r>   13.3414    0.0000 </r>
       <r>   14.5461    0.0000 </r>
       <r>   14.7011    0.0000 </r>
       <r>   14.7011    0.0000 </r>
      </set>
      <set comment="kpoint 59">
       <r>    1.1624    1.0000 </r>
       <r>   11.9903    0.0000 </r>
       <r>   12.6586    0.0000 </r>
       <r>   14.4304    0.0000 </r>
       <r>   15.4326    0.0000 </r>
      </set>
      <set comment="kpoint 60">
       <r>    2.1520    1.0000 </r>
       <r>   10.5137    0.0000 </r>
       <r>   10.9672    0.0000 </r>
       <r>   14.3418    0.0000 </r>
       <r>   15.7602    0.0000 </r>
      </set>
      <set comment="kpoint 61">
       <r>    3.3322    1.0000 </r>
       <r>    8.6318    0.0000 </r>
       <r>    9.9766    0.0000 </r>
       <r>   14.4348    0.0000 </r>
       <r>   16.0091    0.0000 </r>
      </set>
      <set comment="kpoint 62">
       <r>    4.6842    1.0000 </r>
       <r>    6.8560    1.0000 </r>
       <r>    9.2416    0.0000 </r>
       <r>   14.7102    0.0000 </r>
       <r>   16.3785    0.0000 </r>
      </set>
      <set comment="kpoint 63">
       <r>    5.2138    1.0000 </r>
       <r>    6.1872    1.0000 </r>
       <r>    8.7769    0.0000 </r>
       <r>   15.1675    0.0000 </r>
       <r>   16.9196    0.0000 </r>
      </set>
      <set comment="kpoint 64">
       <r>    3.7850    1.0000 </r>
       <r>    7.4296    1.0000 </r>
       <r>    8.9208    0.0000 </r>
       <r>   15.8078    0.0000 </r>
       <r>   17.6428    0.0000 </r>
      </set>
      <set comment="kpoint 65">
       <r>    1.8788    1.0000 </r>
       <r>   10.6081    0.0000 </r>
       <r>   13.8543    0.0000 </r>
       <r>   14.0983    0.0000 </r>
       <r>   14.0983    0.0000 </r>
      </set>
      <set comment="kpoint 66">
       <r>    2.7903    1.0000 </r>
       <r>    9.3983    0.0000 </r>
       <r>   12.1227    0.0000 </r>
       <r>   13.9482    0.0000 </r>
       <r>   14.9055    0.0000 </r>
      </set>
      <set comment="kpoint 67">
       <r>    3.8835    1.0000 </r>
       <r>    8.3911    0.0001 </r>
       <r>   10.2324    0.0000 </r>
       <r>   13.9798    0.0000 </r>
       <r>   15.3570    0.0000 </r>
      </set>
      <set comment="kpoint 68">
       <r>    5.1094    1.0000 </r>
       <r>    7.6072    1.0000 </r>
       <r>    8.4709    0.0000 </r>
       <r>   14.1932    0.0000 </r>
       <r>   15.7396    0.0000 </r>
      </set>
      <set comment="kpoint 69">
       <r>    6.1275    1.0000 </r>
       <r>    6.6545    1.0000 </r>
       <r>    7.6229    1.0000 </r>
       <r>   14.5887    0.0000 </r>
       <r>   16.2446    0.0000 </r>
      </set>
      <set comment="kpoint 70">
       <r>    3.6147    1.0000 </r>
       <r>    8.1364   -0.0336 </r>
       <r>   13.4363    0.0000 </r>
       <r>   13.7369    0.0000 </r>
       <r>   13.7369    0.0000 </r>
      </set>
      <set comment="kpoint 71">
       <r>    4.5808    1.0000 </r>
       <r>    7.1193    1.0000 </r>
       <r>   11.8601    0.0000 </r>
       <r>   13.7073    0.0000 </r>
       <r>   14.6411    0.0000 </r>
      </set>
      <set comment="kpoint 72">
       <r>    5.3480    1.0000 </r>
       <r>    6.6885    1.0000 </r>
       <r>   10.0945    0.0000 </r>
       <r>   13.8592    0.0000 </r>
       <r>   15.2214    0.0000 </r>
      </set>
      <set comment="kpoint 73">
       <r>    5.0885    1.0000 </r>
       <r>    6.4179    1.0000 </r>
       <r>   13.2966    0.0000 </r>
       <r>   13.6165    0.0000 </r>
       <r>   13.6165    0.0000 </r>
      </set>
      <set comment="kpoint 74">
       <r>   -2.4215    1.0000 </r>
       <r>   16.1589    0.0000 </r>
       <r>   17.1184    0.0000 </r>
       <r>   20.1586    0.0000 </r>
       <r>   21.8057    0.0000 </r>
      </set>
      <set comment="kpoint 75">
       <r>   -1.8935    1.0000 </r>
       <r>   14.0054    0.0000 </r>
       <r>   16.3191    0.0000 </r>
       <r>   20.2337    0.0000 </r>
       <r>   21.1994    0.0000 </r>
      </set>
      <set comment="kpoint 76">
       <r>   -1.1576    1.0000 </r>
       <r>   11.6827    0.0000 </r>
       <r>   15.9448    0.0000 </r>
       <r>   19.9216    0.0000 </r>
       <r>   20.0736    0.0000 </r>
      </set>
      <set comment="kpoint 77">
       <r>   -0.2169    1.0000 </r>
       <r>    9.4692    0.0000 </r>
       <r>   15.7813    0.0000 </r>
       <r>   18.7949    0.0000 </r>
       <r>   19.9786    0.0000 </r>
      </set>
      <set comment="kpoint 78">
       <r>    0.9246    1.0000 </r>
       <r>    7.4074    1.0000 </r>
       <r>   15.8107    0.0000 </r>
       <r>   17.8358    0.0000 </r>
       <r>   20.0428    0.0000 </r>
      </set>
      <set comment="kpoint 79">
       <r>    2.2611    1.0000 </r>
       <r>    5.5156    1.0000 </r>
       <r>   16.0252    0.0000 </r>
       <r>   17.0616    0.0000 </r>
       <r>   20.2742    0.0000 </r>
      </set>
      <set comment="kpoint 80">
       <r>    3.6795    1.0000 </r>
       <r>    3.9118    1.0000 </r>
       <r>   16.3259    0.0000 </r>
       <r>   16.5730    0.0000 </r>
       <r>   20.5720    0.0000 </r>
      </set>
      <set comment="kpoint 81">
       <r>   -1.7180    1.0000 </r>
       <r>   14.7422    0.0000 </r>
       <r>   15.8101    0.0000 </r>
       <r>   18.8721    0.0000 </r>
       <r>   19.5381    0.0000 </r>
      </set>
      <set comment="kpoint 82">
       <r>   -1.0528    1.0000 </r>
       <r>   12.7133    0.0000 </r>
       <r>   15.0964    0.0000 </r>
       <r>   18.1492    0.0000 </r>
       <r>   19.1198    0.0000 </r>
      </set>
      <set comment="kpoint 83">
       <r>   -0.1822    1.0000 </r>
       <r>   10.5096    0.0000 </r>
       <r>   14.8283    0.0000 </r>
       <r>   16.9322    0.0000 </r>
       <r>   19.1067    0.0000 </r>
      </set>
      <set comment="kpoint 84">
       <r>    0.8897    1.0000 </r>
       <r>    8.4150    0.0000 </r>
       <r>   14.7721    0.0000 </r>
       <r>   15.9016    0.0000 </r>
       <r>   19.1564    0.0000 </r>
      </set>
      <set comment="kpoint 85">
       <r>    2.1579    1.0000 </r>
       <r>    6.4761    1.0000 </r>
       <r>   14.8050    0.0000 </r>
       <r>   15.1652    0.0000 </r>
       <r>   19.3564    0.0000 </r>
      </set>
      <set comment="kpoint 86">
       <r>    3.6092    1.0000 </r>
       <r>    4.7178    1.0000 </r>
       <r>   14.3136    0.0000 </r>
       <r>   15.3351    0.0000 </r>
       <r>   19.7291    0.0000 </r>
      </set>
      <set comment="kpoint 87">
       <r>    3.1091    1.0000 </r>
       <r>    5.2775    1.0000 </r>
       <r>   13.8534    0.0000 </r>
       <r>   15.8554    0.0000 </r>
       <r>   20.2752    0.0000 </r>
      </set>
      <set comment="kpoint 88">
       <r>    1.7142    1.0000 </r>
       <r>    7.0958    1.0000 </r>
       <r>   13.5806    0.0000 </r>
       <r>   16.5746    0.0000 </r>
       <r>   20.9765    0.0000 </r>
      </set>
      <set comment="kpoint 89">
       <r>    0.5104    1.0000 </r>
       <r>    9.0758    0.0000 </r>
       <r>   13.5131    0.0000 </r>
       <r>   17.4794    0.0000 </r>
       <r>   21.4752    0.0000 </r>
      </set>
      <set comment="kpoint 90">
       <r>   -0.4951    1.0000 </r>
       <r>   11.1632    0.0000 </r>
       <r>   13.6928    0.0000 </r>
       <r>   18.5631    0.0000 </r>
       <r>   21.4876    0.0000 </r>
      </set>
      <set comment="kpoint 91">
       <r>   -1.2975    1.0000 </r>
       <r>   13.0449    0.0000 </r>
       <r>   14.4113    0.0000 </r>
       <r>   19.8140    0.0000 </r>
       <r>   21.2213    0.0000 </r>
      </set>
      <set comment="kpoint 92">
       <r>   -0.7390    1.0000 </r>
       <r>   13.5722    0.0000 </r>
       <r>   14.7008    0.0000 </r>
       <r>   16.4466    0.0000 </r>
       <r>   17.7442    0.0000 </r>
      </set>
      <set comment="kpoint 93">
       <r>    0.0602    1.0000 </r>
       <r>   11.6710    0.0000 </r>
       <r>   14.0738    0.0000 </r>
       <r>   15.1689    0.0000 </r>
       <r>   18.1355    0.0000 </r>
      </set>
      <set comment="kpoint 94">
       <r>    1.0610    1.0000 </r>
       <r>    9.5898    0.0000 </r>
       <r>   13.7807    0.0000 </r>
       <r>   14.1972    0.0000 </r>
       <r>   18.2624    0.0000 </r>
      </set>
      <set comment="kpoint 95">
       <r>    2.2582    1.0000 </r>
       <r>    7.6198    1.0000 </r>
       <r>   13.0351    0.0000 </r>
       <r>   14.0930    0.0000 </r>
       <r>   18.4457    0.0000 </r>
      </set>
      <set comment="kpoint 96">
       <r>    3.6433    1.0000 </r>
       <r>    5.8105    1.0000 </r>
       <r>   12.3178    0.0000 </r>
       <r>   14.3531    0.0000 </r>
       <r>   18.7777    0.0000 </r>
      </set>
      <set comment="kpoint 97">
       <r>    4.1465    1.0000 </r>
       <r>    5.2400    1.0000 </r>
       <r>   11.7863    0.0000 </r>
       <r>   14.8202    0.0000 </r>
       <r>   19.2822    0.0000 </r>
      </set>
      <set comment="kpoint 98">
       <r>    2.7028    1.0000 </r>
       <r>    6.9648    1.0000 </r>
       <r>   11.4659    0.0000 </r>
       <r>   15.4808    0.0000 </r>
       <r>   19.9629    0.0000 </r>
      </set>
      <set comment="kpoint 99">
       <r>    1.4399    1.0000 </r>
       <r>    8.8097    0.0000 </r>
       <r>   11.4063    0.0000 </r>
       <r>   16.3280    0.0000 </r>
       <r>   20.8114    0.0000 </r>
      </set>
      <set comment="kpoint 100">
       <r>    0.3722    1.0000 </r>
       <r>   10.4318    0.0000 </r>
       <r>   11.9333    0.0000 </r>
       <r>   17.3591    0.0000 </r>
       <r>   21.8035    0.0000 </r>
      </set>
      <set comment="kpoint 101">
       <r>    0.5094    1.0000 </r>
       <r>   12.6595    0.0000 </r>
       <r>   13.3818    0.0000 </r>
       <r>   13.9608    0.0000 </r>
       <r>   16.8485    0.0000 </r>
      </set>
      <set comment="kpoint 102">
       <r>    1.4372    1.0000 </r>
       <r>   10.8782    0.0000 </r>
       <r>   12.2561    0.0000 </r>
       <r>   13.4114    0.0000 </r>
       <r>   17.3741    0.0000 </r>
      </set>
      <set comment="kpoint 103">
       <r>    2.5609    1.0000 </r>
       <r>    8.9246    0.0000 </r>
       <r>   11.2782    0.0000 </r>
       <r>   13.3649    0.0000 </r>
       <r>   17.6346    0.0000 </r>
      </set>
      <set comment="kpoint 104">
       <r>    3.8711    1.0000 </r>
       <r>    7.0859    1.0000 </r>
       <r>   10.4805    0.0000 </r>
       <r>   13.5629    0.0000 </r>
       <r>   17.9487    0.0000 </r>
      </set>
      <set comment="kpoint 105">
       <r>    5.2433    1.0000 </r>
       <r>    5.5153    1.0000 </r>
       <r>    9.8932    0.0000 </r>
       <r>   13.9666    0.0000 </r>
       <r>   18.4116    0.0000 </r>
      </set>
      <set comment="kpoint 106">
       <r>    3.8847    1.0000 </r>
       <r>    6.9696    1.0000 </r>
       <r>    9.5701    0.0000 </r>
       <r>   14.5659    0.0000 </r>
       <r>   19.0454    0.0000 </r>
      </set>
      <set comment="kpoint 107">
       <r>    2.5668    1.0000 </r>
       <r>    8.3424    0.0007 </r>
       <r>    9.8505    0.0000 </r>
       <r>   15.3549    0.0000 </r>
       <r>   19.8502    0.0000 </r>
      </set>
      <set comment="kpoint 108">
       <r>    2.0156    1.0000 </r>
       <r>   10.7284    0.0000 </r>
       <r>   12.0059    0.0000 </r>
       <r>   13.2638    0.0000 </r>
       <r>   16.2061    0.0000 </r>
      </set>
      <set comment="kpoint 109">
       <r>    3.0615    1.0000 </r>
       <r>    9.6304    0.0000 </r>
       <r>   10.4057    0.0000 </r>
       <r>   12.8785    0.0000 </r>
       <r>   16.8601    0.0000 </r>
      </set>
      <set comment="kpoint 110">
       <r>    4.2853    1.0000 </r>
       <r>    8.4316    0.0000 </r>
       <r>    8.9279    0.0000 </r>
       <r>   12.9742    0.0000 </r>
       <r>   17.2509    0.0000 </r>
      </set>
      <set comment="kpoint 111">
       <r>    5.6321    1.0000 </r>
       <r>    6.7999    1.0000 </r>
       <r>    8.2562    0.0048 </r>
       <r>   13.3055    0.0000 </r>
       <r>   17.6965    0.0000 </r>
      </set>
      <set comment="kpoint 112">
       <r>    5.2503    1.0000 </r>
       <r>    6.7785    1.0000 </r>
       <r>    8.2486    0.0042 </r>
       <r>   13.8391    0.0000 </r>
       <r>   18.2887    0.0000 </r>
      </set>
      <set comment="kpoint 113">
       <r>    3.7490    1.0000 </r>
       <r>    8.2667    0.0049 </r>
       <r>   11.6114    0.0000 </r>
       <r>   12.8820    0.0000 </r>
       <r>   15.8192    0.0000 </r>
      </set>
      <set comment="kpoint 114">
       <r>    4.8457    1.0000 </r>
       <r>    7.3837    1.0000 </r>
       <r>   10.1211    0.0000 </r>
       <r>   12.6201    0.0000 </r>
       <r>   16.6015    0.0000 </r>
      </set>
      <set comment="kpoint 115">
       <r>    5.7376    1.0000 </r>
       <r>    7.0735    1.0000 </r>
       <r>    8.4591    0.0000 </r>
       <r>   12.8454    0.0000 </r>
       <r>   17.1219    0.0000 </r>
      </set>
      <set comment="kpoint 116">
       <r>    5.2181    1.0000 </r>
       <r>    6.5537    1.0000 </r>
       <r>   11.4806    0.0000 </r>
       <r>   12.7555    0.0000 </r>
       <r>   15.6907    0.0000 </r>
      </set>
      <set comment="kpoint 117">
       <r>   -0.3212    1.0000 </r>
       <r>   11.8702    0.0000 </r>
       <r>   13.2842    0.0000 </r>
       <r>   16.8152    0.0000 </r>
       <r>   20.1878    0.0000 </r>
      </set>
      <set comment="kpoint 118">
       <r>    0.6136    1.0000 </r>
       <r>   10.1174    0.0000 </r>
       <r>   12.6680    0.0000 </r>
       <r>   15.6503    0.0000 </r>
       <r>   20.6251    0.0000 </r>
      </set>
      <set comment="kpoint 119">
       <r>    1.7476    1.0000 </r>
       <r>    8.1525   -0.0510 </r>
       <r>   12.6033    0.0000 </r>
       <r>   14.6730    0.0000 </r>
       <r>   20.8155    0.0000 </r>
      </set>
      <set comment="kpoint 120">
       <r>    3.0742    1.0000 </r>
       <r>    6.2981    1.0000 </r>
       <r>   12.7753    0.0000 </r>
       <r>   13.8992    0.0000 </r>
       <r>   21.0791    0.0000 </r>
      </set>
      <set comment="kpoint 121">
       <r>    4.4650    1.0000 </r>
       <r>    4.7287    1.0000 </r>
       <r>   12.9959    0.0000 </r>
       <r>   13.4799    0.0000 </r>
       <r>   21.3398    0.0000 </r>
      </set>
      <set comment="kpoint 122">
       <r>    0.9233    1.0000 </r>
       <r>   10.9566    0.0000 </r>
       <r>   12.3599    0.0000 </r>
       <r>   13.9388    0.0000 </r>
       <r>   19.3186    0.0000 </r>
      </set>
      <set comment="kpoint 123">
       <r>    1.9851    1.0000 </r>
       <r>    9.3288    0.0000 </r>
       <r>   11.8369    0.0000 </r>
       <r>   12.9100    0.0000 </r>
       <r>   19.9042    0.0000 </r>
      </set>
      <set comment="kpoint 124">
       <r>    3.2397    1.0000 </r>
       <r>    7.4898    1.0000 </r>
       <r>   11.6948    0.0000 </r>
       <r>   12.2539    0.0000 </r>
       <r>   20.2404    0.0000 </r>
      </set>
      <set comment="kpoint 125">
       <r>    4.6679    1.0000 </r>
       <r>    5.7731    1.0000 </r>
       <r>   11.2174    0.0000 </r>
       <r>   12.3876    0.0000 </r>
       <r>   20.6511    0.0000 </r>
      </set>
      <set comment="kpoint 126">
       <r>    4.1818    1.0000 </r>
       <r>    6.3034    1.0000 </r>
       <r>   10.7927    0.0000 </r>
       <r>   12.8934    0.0000 </r>
       <r>   21.2038    0.0000 </r>
      </set>
      <set comment="kpoint 127">
       <r>    2.8030    1.0000 </r>
       <r>    8.0205    0.8776 </r>
       <r>   10.6099    0.0000 </r>
       <r>   13.6192    0.0000 </r>
       <r>   21.8912    0.0000 </r>
      </set>
      <set comment="kpoint 128">
       <r>    1.6105    1.0000 </r>
       <r>    9.5176    0.0000 </r>
       <r>   11.0149    0.0000 </r>
       <r>   14.5420    0.0000 </r>
       <r>   22.0213    0.0000 </r>
      </set>
      <set comment="kpoint 129">
       <r>    2.4247    1.0000 </r>
       <r>   10.3032    0.0000 </r>
       <r>   11.0165    0.0000 </r>
       <r>   11.9251    0.0000 </r>
       <r>   18.6858    0.0000 </r>
      </set>
      <set comment="kpoint 130">
       <r>    3.6023    1.0000 </r>
       <r>    8.7921    0.0000 </r>
       <r>   10.1645    0.0000 </r>
       <r>   11.4870    0.0000 </r>
       <r>   19.4068    0.0000 </r>
      </set>
      <set comment="kpoint 131">
       <r>    4.9512    1.0000 </r>
       <r>    7.0866    1.0000 </r>
       <r>    9.4774    0.0000 </r>
       <r>   11.6490    0.0000 </r>
       <r>   19.8774    0.0000 </r>
      </set>
      <set comment="kpoint 132">
       <r>    5.4679    1.0000 </r>
       <r>    6.4495    1.0000 </r>
       <r>    9.0267    0.0000 </r>
       <r>   12.0930    0.0000 </r>
       <r>   20.4188    0.0000 </r>
      </set>
      <set comment="kpoint 133">
       <r>    4.0494    1.0000 </r>
       <r>    7.6904    1.0000 </r>
       <r>    9.1722    0.0000 </r>
       <r>   12.7556    0.0000 </r>
       <r>   21.0989    0.0000 </r>
      </set>
      <set comment="kpoint 134">
       <r>    4.1519    1.0000 </r>
       <r>    8.6500    0.0000 </r>
       <r>    9.9110    0.0000 </r>
       <r>   11.4434    0.0000 </r>
       <r>   18.3021    0.0000 </r>
      </set>
      <set comment="kpoint 135">
       <r>    5.3739    1.0000 </r>
       <r>    7.8760    0.9962 </r>
       <r>    8.5983    0.0000 </r>
       <r>   11.1863    0.0000 </r>
       <r>   19.1556    0.0000 </r>
      </set>
      <set comment="kpoint 136">
       <r>    6.3878    1.0000 </r>
       <r>    6.8942    1.0000 </r>
       <r>    7.8688    0.9954 </r>
       <r>   11.5074    0.0000 </r>
       <r>   19.7556    0.0000 </r>
      </set>
      <set comment="kpoint 137">
       <r>    5.6077    1.0000 </r>
       <r>    6.9588    1.0000 </r>
       <r>    9.7804    0.0000 </r>
       <r>   11.3040    0.0000 </r>
       <r>   18.1750    0.0000 </r>
      </set>
      <set comment="kpoint 138">
       <r>    3.1042    1.0000 </r>
       <r>    8.8649    0.0000 </r>
       <r>   10.3093    0.0000 </r>
       <r>   11.9031    0.0000 </r>
       <r>   21.4093    0.0000 </r>
      </set>
      <set comment="kpoint 139">
       <r>    4.4087    1.0000 </r>
       <r>    7.4927    1.0000 </r>
       <r>   10.0107    0.0000 </r>
       <r>   11.1339    0.0000 </r>
       <r>   22.1735    0.0000 </r>
      </set>
      <set comment="kpoint 140">
       <r>    5.7608    1.0000 </r>
       <r>    6.0230    1.0000 </r>
       <r>   10.1231    0.0000 </r>
       <r>   10.7583    0.0000 </r>
       <r>   22.5530    0.0000 </r>
      </set>
      <set comment="kpoint 141">
       <r>    4.8200    1.0000 </r>
       <r>    8.4734    0.0000 </r>
       <r>    9.1887    0.0000 </r>
       <r>   10.1835    0.0000 </r>
       <r>   21.0352    0.0000 </r>
      </set>
      <set comment="kpoint 142">
       <r>    6.1596    1.0000 </r>
       <r>    7.2185    1.0000 </r>
       <r>    8.6827    0.0000 </r>
       <r>    9.9724    0.0000 </r>
       <r>   21.9505    0.0000 </r>
      </set>
      <set comment="kpoint 143">
       <r>    5.7472    1.0000 </r>
       <r>    7.2994    1.0000 </r>
       <r>    8.7180    0.0000 </r>
       <r>   10.3949    0.0000 </r>
       <r>   22.5875    0.0000 </r>
      </set>
      <set comment="kpoint 144">
       <r>    6.2576    1.0000 </r>
       <r>    7.6043    1.0000 </r>
       <r>    8.3426    0.0007 </r>
       <r>    9.9533    0.0000 </r>
       <r>   20.9078    0.0000 </r>
      </set>
      <set comment="kpoint 145">
       <r>    7.1692    1.0000 </r>
       <r>    7.1692    1.0000 </r>
       <r>    8.1855   -0.0334 </r>
       <r>    9.1301    0.0000 </r>
       <r>   23.8774    0.0000 </r>
      </set>
     </set>
    </set>
   </array>
  </eigenvalues>
  <separator name="orbital magnetization" >
   <v name="MAGDIPOLOUT">      0.00000000      0.00000000      0.00000000</v>
  </separator>
  <dos>
   <i name="efermi">      8.06089226 </i>
   <total>
    <array>
     <dimension dim="1">gridpoints</dimension>
     <dimension dim="2">spin</dimension>
     <field>energy</field>
     <field>total</field>
     <field>integrated</field>
     <set>
      <set comment="spin 1">
       <r>    -4.4790     0.0000     0.0000 </r>
       <r>    -4.3800     0.0000     0.0000 </r>
       <r>    -4.2809     0.0000     0.0000 </r>
       <r>    -4.1819     0.0000     0.0000 </r>
       <r>    -4.0829     0.0000     0.0000 </r>
       <r>    -3.9839     0.0000     0.0000 </r>
       <r>    -3.8848     0.0000     0.0000 </r>
       <r>    -3.7858     0.0000     0.0000 </r>
       <r>    -3.6868     0.0000     0.0000 </r>
       <r>    -3.5878     0.0000     0.0000 </r>
       <r>    -3.4888     0.0000     0.0000 </r>
       <r>    -3.3897     0.0000     0.0000 </r>
       <r>    -3.2907     0.0000     0.0000 </r>
       <r>    -3.1917     0.0001     0.0000 </r>
       <r>    -3.0927     0.0019     0.0002 </r>
       <r>    -2.9936     0.0462     0.0048 </r>
       <r>    -2.8946     0.0316     0.0079 </r>
       <r>    -2.7956     0.0508     0.0129 </r>
       <r>    -2.6966     0.1314     0.0260 </r>
       <r>    -2.5976     0.0356     0.0295 </r>
       <r>    -2.4985     0.0320     0.0326 </r>
       <r>    -2.3995     0.1881     0.0513 </r>
       <r>    -2.3005     0.0744     0.0586 </r>
       <r>    -2.2015     0.1246     0.0710 </r>
       <r>    -2.1024     0.1191     0.0828 </r>
       <r>    -2.0034     0.0111     0.0839 </r>
       <r>    -1.9044     0.1529     0.0990 </r>
       <r>    -1.8054     0.2772     0.1265 </r>
       <r>    -1.7064     0.0645     0.1328 </r>
       <r>    -1.6073     0.1495     0.1476 </r>
       <r>    -1.5083     0.1487     0.1624 </r>
       <r>    -1.4093     0.0093     0.1633 </r>
       <r>    -1.3103     0.2373     0.1868 </r>
       <r>    -1.2112     0.1624     0.2029 </r>
       <r>    -1.1122     0.1975     0.2224 </r>
       <r>    -1.0132     0.3299     0.2551 </r>
       <r>    -0.9142     0.0515     0.2602 </r>
       <r>    -0.8152     0.0252     0.2627 </r>
       <r>    -0.7161     0.2778     0.2902 </r>
       <r>    -0.6171     0.1274     0.3028 </r>
       <r>    -0.5181     0.2056     0.3232 </r>
       <r>    -0.4191     0.3027     0.3532 </r>
       <r>    -0.3200     0.0482     0.3579 </r>
       <r>    -0.2210     0.2785     0.3855 </r>
       <r>    -0.1220     0.4030     0.4254 </r>
       <r>    -0.0230     0.0617     0.4315 </r>
       <r>     0.0760     0.2065     0.4520 </r>
       <r>     0.1751     0.0869     0.4606 </r>
       <r>     0.2741     0.0847     0.4690 </r>
       <r>     0.3731     0.3925     0.5078 </r>
       <r>     0.4721     0.1924     0.5269 </r>
       <r>     0.5712     0.3229     0.5589 </r>
       <r>     0.6702     0.4354     0.6020 </r>
       <r>     0.7692     0.0464     0.6066 </r>
       <r>     0.8682     0.0809     0.6146 </r>
       <r>     0.9672     0.4754     0.6617 </r>
       <r>     1.0663     0.1641     0.6779 </r>
       <r>     1.1653     0.2444     0.7021 </r>
       <r>     1.2643     0.1152     0.7135 </r>
       <r>     1.3633     0.0026     0.7138 </r>
       <r>     1.4624     0.5719     0.7704 </r>
       <r>     1.5614     0.3464     0.8047 </r>
       <r>     1.6604     0.1784     0.8224 </r>
       <r>     1.7594     0.4854     0.8704 </r>
       <r>     1.8584     0.1619     0.8865 </r>
       <r>     1.9575     0.1732     0.9036 </r>
       <r>     2.0565     0.3037     0.9337 </r>
       <r>     2.1555     0.1784     0.9514 </r>
       <r>     2.2545     0.4290     0.9938 </r>
       <r>     2.3536     0.2670     1.0203 </r>
       <r>     2.4526     0.0416     1.0244 </r>
       <r>     2.5516     0.3139     1.0555 </r>
       <r>     2.6506     0.3648     1.0916 </r>
       <r>     2.7496     0.2112     1.1125 </r>
       <r>     2.8487     0.6136     1.1733 </r>
       <r>     2.9477     0.1131     1.1845 </r>
       <r>     3.0467     0.2656     1.2108 </r>
       <r>     3.1457     0.7355     1.2836 </r>
       <r>     3.2448     0.1660     1.3001 </r>
       <r>     3.3438     0.2555     1.3254 </r>
       <r>     3.4428     0.1174     1.3370 </r>
       <r>     3.5418    -0.0223     1.3348 </r>
       <r>     3.6408     0.5699     1.3912 </r>
       <r>     3.7399     0.3907     1.4299 </r>
       <r>     3.8389     0.1805     1.4478 </r>
       <r>     3.9379     0.6806     1.5152 </r>
       <r>     4.0369     0.1133     1.5264 </r>
       <r>     4.1360     0.2470     1.5508 </r>
       <r>     4.2350     0.6599     1.6162 </r>
       <r>     4.3340     0.2098     1.6370 </r>
       <r>     4.4330     0.3981     1.6764 </r>
       <r>     4.5320     0.3690     1.7129 </r>
       <r>     4.6311     0.1043     1.7232 </r>
       <r>     4.7301     0.5667     1.7794 </r>
       <r>     4.8291     0.4154     1.8205 </r>
       <r>     4.9281     0.2615     1.8464 </r>
       <r>     5.0272     0.2450     1.8706 </r>
       <r>     5.1262     0.1007     1.8806 </r>
       <r>     5.2252     0.3856     1.9188 </r>
       <r>     5.3242     0.7749     1.9955 </r>
       <r>     5.4232     0.2328     2.0186 </r>
       <r>     5.5223     0.5705     2.0751 </r>
       <r>     5.6213     0.4250     2.1172 </r>
       <r>     5.7203     0.2382     2.1408 </r>
       <r>     5.8193     0.6258     2.2027 </r>
       <r>     5.9184     0.1304     2.2156 </r>
       <r>     6.0174     0.2454     2.2399 </r>
       <r>     6.1164     0.3864     2.2782 </r>
       <r>     6.2154     0.3740     2.3152 </r>
       <r>     6.3144     0.4629     2.3611 </r>
       <r>     6.4135     0.3226     2.3930 </r>
       <r>     6.5125     0.4236     2.4350 </r>
       <r>     6.6115     0.1916     2.4539 </r>
       <r>     6.7105     0.1028     2.4641 </r>
       <r>     6.8096     0.2911     2.4930 </r>
       <r>     6.9086     0.4327     2.5358 </r>
       <r>     7.0076     0.4575     2.5811 </r>
       <r>     7.1066     0.7171     2.6521 </r>
       <r>     7.2056     0.5340     2.7050 </r>
       <r>     7.3047     0.2839     2.7331 </r>
       <r>     7.4037     0.3527     2.7680 </r>
       <r>     7.5027     0.5526     2.8227 </r>
       <r>     7.6017     0.3621     2.8586 </r>
       <r>     7.7008     0.3843     2.8966 </r>
       <r>     7.7998     0.1062     2.9072 </r>
       <r>     7.8988     0.4396     2.9507 </r>
       <r>     7.9978     0.3934     2.9896 </r>
       <r>     8.0968     0.1650     3.0060 </r>
       <r>     8.1959     0.3526     3.0409 </r>
       <r>     8.2949     0.4525     3.0857 </r>
       <r>     8.3939     0.4002     3.1253 </r>
       <r>     8.4929     0.6970     3.1943 </r>
       <r>     8.5920     0.2651     3.2206 </r>
       <r>     8.6910     0.5611     3.2762 </r>
       <r>     8.7900     0.4740     3.3231 </r>
       <r>     8.8890     0.6223     3.3847 </r>
       <r>     8.9880     0.5029     3.4345 </r>
       <r>     9.0871     0.3414     3.4683 </r>
       <r>     9.1861     0.3527     3.5032 </r>
       <r>     9.2851     0.3688     3.5398 </r>
       <r>     9.3841     0.2370     3.5632 </r>
       <r>     9.4832     0.3921     3.6021 </r>
       <r>     9.5822     0.5925     3.6607 </r>
       <r>     9.6812     0.4295     3.7033 </r>
       <r>     9.7802     0.0059     3.7038 </r>
       <r>     9.8792     0.3014     3.7337 </r>
       <r>     9.9783     0.6999     3.8030 </r>
       <r>    10.0773     0.6048     3.8629 </r>
       <r>    10.1763     0.7477     3.9369 </r>
       <r>    10.2753     0.4184     3.9783 </r>
       <r>    10.3744     0.3751     4.0155 </r>
       <r>    10.4734     0.5902     4.0739 </r>
       <r>    10.5724     0.5829     4.1317 </r>
       <r>    10.6714     0.2374     4.1552 </r>
       <r>    10.7704     0.3306     4.1879 </r>
       <r>    10.8695     0.4393     4.2314 </r>
       <r>    10.9685     0.3189     4.2630 </r>
       <r>    11.0675     0.4864     4.3111 </r>
       <r>    11.1665     0.4306     4.3538 </r>
       <r>    11.2656     0.7433     4.4274 </r>
       <r>    11.3646     0.2372     4.4509 </r>
       <r>    11.4636     0.5296     4.5033 </r>
       <r>    11.5626     0.5036     4.5532 </r>
       <r>    11.6616     0.5506     4.6077 </r>
       <r>    11.7607     0.7682     4.6838 </r>
       <r>    11.8597     0.4469     4.7280 </r>
       <r>    11.9587     0.5352     4.7810 </r>
       <r>    12.0577     0.2794     4.8087 </r>
       <r>    12.1568     0.3303     4.8414 </r>
       <r>    12.2558     0.3443     4.8755 </r>
       <r>    12.3548     0.6844     4.9433 </r>
       <r>    12.4538     0.5127     4.9940 </r>
       <r>    12.5528     0.2063     5.0145 </r>
       <r>    12.6519     0.7238     5.0861 </r>
       <r>    12.7509     0.7121     5.1566 </r>
       <r>    12.8499     0.4687     5.2031 </r>
       <r>    12.9489     0.8224     5.2845 </r>
       <r>    13.0480     0.6700     5.3508 </r>
       <r>    13.1470     0.2897     5.3795 </r>
       <r>    13.2460     0.0379     5.3833 </r>
       <r>    13.3450     0.6015     5.4428 </r>
       <r>    13.4440     0.6744     5.5096 </r>
       <r>    13.5431     0.5109     5.5602 </r>
       <r>    13.6421     0.9292     5.6522 </r>
       <r>    13.7411     0.4433     5.6961 </r>
       <r>    13.8401     0.4517     5.7408 </r>
       <r>    13.9392     0.7381     5.8139 </r>
       <r>    14.0382     0.7793     5.8911 </r>
       <r>    14.1372     0.4914     5.9398 </r>
       <r>    14.2362     0.3083     5.9703 </r>
       <r>    14.3352     0.3587     6.0058 </r>
       <r>    14.4343     0.6822     6.0734 </r>
       <r>    14.5333     0.3779     6.1108 </r>
       <r>    14.6323     0.5350     6.1638 </r>
       <r>    14.7313     0.7649     6.2395 </r>
       <r>    14.8304     0.9853     6.3371 </r>
       <r>    14.9294     0.6415     6.4006 </r>
       <r>    15.0284     0.1962     6.4200 </r>
       <r>    15.1274     0.4966     6.4692 </r>
       <r>    15.2264     0.6933     6.5379 </r>
       <r>    15.3255     0.1937     6.5570 </r>
       <r>    15.4245     0.5796     6.6144 </r>
       <r>    15.5235     0.3847     6.6525 </r>
       <r>    15.6225     0.2975     6.6820 </r>
       <r>    15.7216     0.6011     6.7415 </r>
       <r>    15.8206     0.9630     6.8369 </r>
       <r>    15.9196     0.8555     6.9216 </r>
       <r>    16.0186     0.5282     6.9739 </r>
       <r>    16.1176     0.2397     6.9976 </r>
       <r>    16.2167     0.2607     7.0234 </r>
       <r>    16.3157     0.5836     7.0812 </r>
       <r>    16.4147     0.7020     7.1507 </r>
       <r>    16.5137     0.2653     7.1770 </r>
       <r>    16.6128     0.8790     7.2640 </r>
       <r>    16.7118     0.4135     7.3050 </r>
       <r>    16.8108     0.1559     7.3204 </r>
       <r>    16.9098     0.8923     7.4088 </r>
       <r>    17.0088     0.6027     7.4685 </r>
       <r>    17.1079     0.2920     7.4974 </r>
       <r>    17.2069     0.3959     7.5366 </r>
       <r>    17.3059     0.8156     7.6174 </r>
       <r>    17.4049     0.7378     7.6904 </r>
       <r>    17.5040     0.3262     7.7227 </r>
       <r>    17.6030     0.2560     7.7481 </r>
       <r>    17.7020     0.8084     7.8281 </r>
       <r>    17.8010     0.7120     7.8986 </r>
       <r>    17.9000     0.3942     7.9377 </r>
       <r>    17.9991     0.3759     7.9749 </r>
       <r>    18.0981     0.2201     7.9967 </r>
       <r>    18.1971     0.7620     8.0721 </r>
       <r>    18.2961     0.5669     8.1283 </r>
       <r>    18.3952     0.4888     8.1767 </r>
       <r>    18.4942     0.6888     8.2449 </r>
       <r>    18.5932     0.5307     8.2974 </r>
       <r>    18.6922     0.2971     8.3269 </r>
       <r>    18.7912     0.6175     8.3880 </r>
       <r>    18.8903     0.6203     8.4494 </r>
       <r>    18.9893     0.0863     8.4580 </r>
       <r>    19.0883     0.5709     8.5145 </r>
       <r>    19.1873     0.9473     8.6083 </r>
       <r>    19.2864     0.6999     8.6776 </r>
       <r>    19.3854     0.5977     8.7368 </r>
       <r>    19.4844     0.3554     8.7720 </r>
       <r>    19.5834     0.3564     8.8073 </r>
       <r>    19.6824     0.3316     8.8401 </r>
       <r>    19.7815     0.4729     8.8870 </r>
       <r>    19.8805     0.7279     8.9590 </r>
       <r>    19.9795     0.8669     9.0449 </r>
       <r>    20.0785     0.6105     9.1053 </r>
       <r>    20.1776     0.4382     9.1487 </r>
       <r>    20.2766     1.0687     9.2545 </r>
       <r>    20.3756     0.6188     9.3158 </r>
       <r>    20.4746     0.2058     9.3362 </r>
       <r>    20.5737     0.2079     9.3568 </r>
       <r>    20.6727     0.5109     9.4074 </r>
       <r>    20.7717     0.2699     9.4341 </r>
       <r>    20.8707     0.5425     9.4878 </r>
       <r>    20.9697     0.4086     9.5283 </r>
       <r>    21.0688     0.4665     9.5745 </r>
       <r>    21.1678     0.3452     9.6086 </r>
       <r>    21.2668     0.5430     9.6624 </r>
       <r>    21.3658     0.1915     9.6814 </r>
       <r>    21.4649     0.3930     9.7203 </r>
       <r>    21.5639     0.3364     9.7536 </r>
       <r>    21.6629    -0.0340     9.7502 </r>
       <r>    21.7619     0.1853     9.7686 </r>
       <r>    21.8609     0.4117     9.8094 </r>
       <r>    21.9600     0.4508     9.8540 </r>
       <r>    22.0590     0.3134     9.8850 </r>
       <r>    22.1580     0.1681     9.9017 </r>
       <r>    22.2570     0.1645     9.9180 </r>
       <r>    22.3561     0.0454     9.9225 </r>
       <r>    22.4551     0.1329     9.9356 </r>
       <r>    22.5541     0.2310     9.9585 </r>
       <r>    22.6531     0.2061     9.9789 </r>
       <r>    22.7521     0.0409     9.9830 </r>
       <r>    22.8512     0.0228     9.9852 </r>
       <r>    22.9502     0.0908     9.9942 </r>
       <r>    23.0492     0.0329     9.9975 </r>
       <r>    23.1482    -0.0044     9.9970 </r>
       <r>    23.2473     0.0005     9.9971 </r>
       <r>    23.3463     0.0000     9.9971 </r>
       <r>    23.4453     0.0000     9.9971 </r>
       <r>    23.5443     0.0000     9.9971 </r>
       <r>    23.6433     0.0001     9.9971 </r>
       <r>    23.7424    -0.0008     9.9970 </r>
       <r>    23.8414     0.0053     9.9975 </r>
       <r>    23.9404     0.0250    10.0000 </r>
       <r>    24.0394     0.0001    10.0000 </r>
       <r>    24.1385    -0.0001    10.0000 </r>
       <r>    24.2375     0.0000    10.0000 </r>
       <r>    24.3365     0.0000    10.0000 </r>
       <r>    24.4355     0.0000    10.0000 </r>
       <r>    24.5345     0.0000    10.0000 </r>
       <r>    24.6336     0.0000    10.0000 </r>
       <r>    24.7326     0.0000    10.0000 </r>
       <r>    24.8316     0.0000    10.0000 </r>
       <r>    24.9306     0.0000    10.0000 </r>
       <r>    25.0297     0.0000    10.0000 </r>
       <r>    25.1287     0.0000    10.0000 </r>
       <r>    25.2277     0.0000    10.0000 </r>
      </set>
     </set>
    </array>
   </total>
  </dos>
 </calculation>
 <structure name="finalpos" >
  <crystal>
   <varray name="basis" >
    <v>      -2.01973917       0.00000000       2.01973917 </v>
    <v>       0.00000000       2.01973917       2.01973917 </v>
    <v>      -2.01973917       2.01973917       0.00000000 </v>
   </varray>
   <i name="volume">     16.47843108 </i>
   <varray name="rec_basis" >
    <v>      -0.24755672      -0.24755672       0.24755672 </v>
    <v>       0.24755672       0.24755672       0.24755672 </v>
    <v>      -0.24755672       0.24755672      -0.24755672 </v>
   </varray>
  </crystal>
  <varray name="positions" >
   <v>       0.00000000       0.00000000       0.00000000 </v>
  </varray>
 </structure>
</modeling>
