unknown system                          
   8.0778599999999994     
     1.000000    0.000000    0.000000
     0.000000    1.000000    0.000000
     0.000000    0.000000    0.500000
   Al
    16
Direct
  0.998762  0.000000  0.000000
  0.000000  0.250000  0.500000
  0.250000  0.000000  0.500000
  0.250000  0.250000  0.000000
  0.000000  0.500000  0.000000
  0.000000  0.750000  0.500000
  0.250000  0.500000  0.500000
  0.250000  0.750000  0.000000
  0.500000  0.000000  0.000000
  0.500000  0.250000  0.500000
  0.750000  0.000000  0.500000
  0.750000  0.250000  0.000000
  0.500000  0.500000  0.000000
  0.500000  0.750000  0.500000
  0.750000  0.500000  0.500000
  0.750000  0.750000  0.000000

   60   60   30
 -.12739458907E+03 -.12234502923E+03 -.10824598157E+03 -.86489319554E+02 -.59824781366E+02
 -.34565937980E+02 -.16821391496E+02 -.94220147686E+01 -.64802947794E+01 -.31137552700E+01
 -.10251065691E+01 0.45330053972E+00 0.13969387476E+01 0.19502049952E+01 0.22115017716E+01
 0.23264204084E+01 0.21922075797E+01 0.19187742696E+01 0.13310836162E+01 0.36968192474E+00
 -.11751923925E+01 -.32986426678E+01 -.67654426580E+01 -.96448675261E+01 -.17764246603E+02
 -.36321404545E+02 -.61772981768E+02 -.88341069802E+02 -.10955677644E+03 -.12303954106E+03
 -.12741655324E+03 -.12304106036E+03 -.10956357814E+03 -.88345922394E+02 -.61785344139E+02
 -.36327952406E+02 -.17781036114E+02 -.96486142359E+01 -.67837507354E+01 -.33029466631E+01
 -.11955465700E+01 0.36381198469E+00 0.13034202666E+01 0.19047480280E+01 0.21469192089E+01
 0.22932010717E+01 0.21268861965E+01 0.18705960487E+01 0.12350637052E+01 0.27350543812E+00
 -.13487437313E+01 -.35014917129E+01 -.70626169829E+01 -.99094029501E+01 -.18773806811E+02
 -.38125296144E+02 -.63748451713E+02 -.90165336405E+02 -.11083629698E+03 -.12368553166E+03
 -.12301808004E+03 -.11786066367E+03 -.10376969359E+03 -.82257407800E+02 -.56743906540E+02
 -.32359748714E+02 -.15790660237E+02 -.93109967164E+01 -.62446440186E+01 -.30490138745E+01
 -.98543550084E+00 0.41808654990E+00 0.13386123917E+01 0.18414022767E+01 0.21519706043E+01
 0.21825810059E+01 0.21336324675E+01 0.18130813191E+01 0.12705812615E+01 0.33891527319E+00
 -.11360245617E+01 -.32221037899E+01 -.65370376335E+01 -.95032981493E+01 -.16672180165E+02
 -.33986277242E+02 -.58626030091E+02 -.84060365903E+02 -.10507448921E+03 -.11855890015E+03
 -.12304147292E+03 -.11856007581E+03 -.10508152980E+03 -.84064442350E+02 -.58639523348E+02
 -.33991025154E+02 -.16689767406E+02 -.95055367265E+01 -.65572504297E+01 -.32240600956E+01
 -.11589187639E+01 0.33638632823E+00 0.12403590547E+01 0.18034835100E+01 0.20846932921E+01
 0.21563531629E+01 0.20652540313E+01 0.17725299592E+01 0.11698355157E+01 0.25120241996E+00
 -.13134865303E+01 -.34089944322E+01 -.68470506930E+01 -.97247914551E+01 -.17624046014E+02
 -.35668981581E+02 -.60528588821E+02 -.85843247019E+02 -.10634685556E+03 -.11921030011E+03
 -.10953636905E+03 -.10441266329E+03 -.91222445453E+02 -.70841584032E+02 -.47796076102E+02
 -.26466896300E+02 -.13414665931E+02 -.88797343115E+01 -.56670172658E+01 -.28249180785E+01
 -.91769335918E+00 0.28684112637E+00 0.11512786426E+01 0.16046247811E+01 0.18464573495E+01
 0.19272045751E+01 0.18283354070E+01 0.15747906201E+01 0.10913334717E+01 0.21045531187E+00
 -.10550464417E+01 -.29856768279E+01 -.59444897028E+01 -.90571116391E+01 -.14081369953E+02
 -.27813388157E+02 -.49483629456E+02 -.72506961882E+02 -.92464113484E+02 -.10507685455E+03
 -.10955997086E+03 -.10507845851E+03 -.92470620456E+02 -.72511589128E+02 -.49495255104E+02
 -.27820083212E+02 -.14094991230E+02 -.90628133578E+01 -.59609836129E+01 -.29913062312E+01
 -.10732654437E+01 0.20412737459E+00 0.10664262223E+01 0.15615001937E+01 0.17873549724E+01
 0.18951500496E+01 0.17681894278E+01 0.15296805354E+01 0.10029184549E+01 0.12312344575E+00
 -.12160536298E+01 -.31605526230E+01 -.62429115551E+01 -.92459981383E+01 -.14811553726E+02
 -.29223021482E+02 -.51191386652E+02 -.74161282563E+02 -.93673564802E+02 -.10570014057E+03
 -.88321085800E+02 -.83447888910E+02 -.71387124571E+02 -.53878554827E+02 -.35092010170E+02
 -.19191865762E+02 -.10914901166E+02 -.80835403433E+01 -.48298490835E+01 -.25315295357E+01
 -.92704428758E+00 0.10648737881E+00 0.70340862792E+00 0.11158696826E+01 0.12837961326E+01
 0.13344077547E+01 0.12700459725E+01 0.10875667280E+01 0.65091445037E+00 0.32426035858E-01
 -.10408833558E+01 -.26814362030E+01 -.50613099482E+01 -.82996206131E+01 -.11266004743E+02
 -.20100827038E+02 -.36483354093E+02 -.55246451757E+02 -.72506932963E+02 -.84063241753E+02
 -.88344461919E+02 -.84065348397E+02 -.72511484695E+02 -.55252435988E+02 -.36492871037E+02
 -.20109634898E+02 -.11274608583E+02 -.83097848328E+01 -.50725280386E+01 -.26920523809E+01
 -.10528025035E+01 0.20887466793E-01 0.63532919992E+00 0.10688780726E+01 0.12408804403E+01
 0.12980146718E+01 0.12257547163E+01 0.10386666008E+01 0.57935830711E+00 -.56625805714E-01
 -.11732061327E+01 -.28468075870E+01 -.53148111948E+01 -.85189219875E+01 -.11670954905E+02
 -.21058526974E+02 -.37896260277E+02 -.56617513803E+02 -.73598887295E+02 -.84643953627E+02
 -.61763571410E+02 -.58144541571E+02 -.48632906467E+02 -.35436164566E+02 -.22013828096E+02
 -.12956661754E+02 -.94124233431E+01 -.66907979161E+01 -.40166866171E+01 -.22621950764E+01
 -.10516891944E+01 -.35052171489E+00 0.73631928962E-01 0.24487047630E+00 0.35996839669E+00
 0.38448296260E+00 0.34701847798E+00 0.21631886202E+00 0.32336545128E-01 -.41685029929E+00
 -.11425105008E+01 -.23958507569E+01 -.41907328520E+01 -.69324534149E+01 -.95891268526E+01
 -.13440036329E+02 -.22869048593E+02 -.36485573865E+02 -.49488407394E+02 -.58631679963E+02
 -.61779672202E+02 -.58634087004E+02 -.49492131705E+02 -.36492624254E+02 -.22875971629E+02
 -.13447889137E+02 -.95972315649E+01 -.69435486120E+01 -.42000025090E+01 -.24076173281E+01
 -.11516076261E+01 -.42969243937E+00 0.20800035170E-01 0.19762445373E+00 0.32577591185E+00
 0.34705028810E+00 0.31189744666E+00 0.16728650287E+00 -.23822115914E-01 -.49963510355E+00
 -.12478117332E+01 -.25463201609E+01 -.43826803291E+01 -.71868560844E+01 -.97806593079E+01
 -.13971475524E+02 -.23755502535E+02 -.37539244444E+02 -.50329752207E+02 -.59089801461E+02
 -.36315292884E+02 -.33651197705E+02 -.27265382862E+02 -.19545695751E+02 -.13054728748E+02
 -.99035885916E+01 -.77360553667E+01 -.51485518499E+01 -.33690566620E+01 -.21286624407E+01
 -.14575290557E+01 -.10857242411E+01 -.10082816115E+01 -.10346138740E+01 -.11314754839E+01
 -.11714144455E+01 -.11405718786E+01 -.10565979238E+01 -.10436731532E+01 -.11411290037E+01
 -.15296275615E+01 -.22368386103E+01 -.35028014022E+01 -.53424669582E+01 -.79328524284E+01
 -.10081256029E+02 -.13441574591E+02 -.20102312551E+02 -.27816414709E+02 -.33990159888E+02
 -.36327243102E+02 -.33992090422E+02 -.27819830592E+02 -.20108396797E+02 -.13446823768E+02
 -.10089825017E+02 -.79405105712E+01 -.53533190961E+01 -.35110079732E+01 -.22484120710E+01
 -.15372692830E+01 -.11533603629E+01 -.10516744349E+01 -.10735844733E+01 -.11557760237E+01
 -.12018877192E+01 -.11659194901E+01 -.10976196945E+01 -.10894196035E+01 -.12125804657E+01
 -.16134563355E+01 -.23622972270E+01 -.36498296921E+01 -.55554982145E+01 -.81345347018E+01
 -.10276067816E+02 -.13859232611E+02 -.20670699105E+02 -.28364738539E+02 -.34311722387E+02
 -.17768421083E+02 -.16525554929E+02 -.13856577771E+02 -.11092044067E+02 -.94669937195E+01
 -.77728032342E+01 -.55916153463E+01 -.40092027918E+01 -.29160083530E+01 -.23646398168E+01
 -.21776378041E+01 -.23592866025E+01 -.26538000004E+01 -.29672100405E+01 -.32065207559E+01
 -.32923907478E+01 -.32159957480E+01 -.29850780513E+01 -.26815947858E+01 -.23988498572E+01
 -.22378093276E+01 -.24413476995E+01 -.30252559632E+01 -.41381551519E+01 -.57692800489E+01
 -.79338143817E+01 -.95902732051E+01 -.11268925392E+02 -.14086979401E+02 -.16680692884E+02
 -.17773407311E+02 -.16682419558E+02 -.14090827176E+02 -.11273260434E+02 -.95968930506E+01
 -.79403671013E+01 -.57781080677E+01 -.41459958568E+01 -.30352607929E+01 -.24491391915E+01
 -.22478762513E+01 -.24059196453E+01 -.26928020548E+01 -.29938878725E+01 -.32334304696E+01
 -.33124381231E+01 -.32435784614E+01 -.30132328112E+01 -.27234038938E+01 -.24486410356E+01
 -.23122128235E+01 -.25303007690E+01 -.31499170686E+01 -.42797867748E+01 -.59628873026E+01
 -.80999707847E+01 -.97221536816E+01 -.11461527615E+02 -.14321401408E+02 -.16832247435E+02
 -.96482976791E+01 -.94763087105E+01 -.90087054302E+01 -.82098867995E+01 -.68033436686E+01
 -.52042487080E+01 -.40284969420E+01 -.32157549572E+01 -.28778074684E+01 -.29666690875E+01
 -.34619889604E+01 -.41604609227E+01 -.50437692317E+01 -.59384000436E+01 -.65392196660E+01
 -.67683774502E+01 -.65435834039E+01 -.59494051841E+01 -.50653375462E+01 -.41920205365E+01
 -.35039203909E+01 -.30262131228E+01 -.29524430707E+01 -.33147937211E+01 -.41390125682E+01
 -.53452215368E+01 -.69366405400E+01 -.83033047074E+01 -.90593792336E+01 -.95044875319E+01
 -.96476158902E+01 -.95062867790E+01 -.90624520445E+01 -.83079291289E+01 -.69418470859E+01
 -.53518905926E+01 -.41459837794E+01 -.33229546442E+01 -.29601077260E+01 -.30347248581E+01
 -.35110731592E+01 -.41999376188E+01 -.50713588594E+01 -.59586795950E+01 -.65531509908E+01
 -.67839425819E+01 -.65584935020E+01 -.59714230792E+01 -.50948432164E+01 -.42345101883E+01
 -.35565508135E+01 -.30985057517E+01 -.30391423329E+01 -.34268111159E+01 -.42599708432E+01
 -.54979028845E+01 -.70763391212E+01 -.84000566700E+01 -.91147587126E+01 -.95356684268E+01
 -.67764669915E+01 -.65125057788E+01 -.58846044706E+01 -.49816331021E+01 -.41030989519E+01
 -.34241461451E+01 -.29463684966E+01 -.28882487399E+01 -.32610282419E+01 -.40988370277E+01
 -.53142582040E+01 -.69155643108E+01 -.82879214791E+01 -.90440233650E+01 -.94923121884E+01
 -.96403402091E+01 -.95013169449E+01 -.90587466209E+01 -.83022603555E+01 -.69362680845E+01
 -.53451507944E+01 -.41392264257E+01 -.33154939634E+01 -.29533268933E+01 -.30278046023E+01
 -.35053482367E+01 -.41941712777E+01 -.50670893695E+01 -.59533625149E+01 -.65483467534E+01
 -.67765379339E+01 -.65496362378E+01 -.59560045533E+01 -.50706568015E+01 -.41990172936E+01
 -.35108687336E+01 -.30342175970E+01 -.29600066916E+01 -.33227404869E+01 -.41459975450E+01
 -.53519761889E+01 -.69420703467E+01 -.83088471044E+01 -.90641084084E+01 -.95113811196E+01
 -.96569248680E+01 -.95204797953E+01 -.90795697643E+01 -.83255444211E+01 -.69654425322E+01
 -.53861674381E+01 -.41900317054E+01 -.33812424082E+01 -.30289695698E+01 -.31201367198E+01
 -.35946992445E+01 -.42930815455E+01 -.51585496190E+01 -.60251554226E+01 -.65858154324E+01
 -.33038125635E+01 -.32056279626E+01 -.29536922291E+01 -.26360396477E+01 -.23468405352E+01
 -.21805174766E+01 -.23933074556E+01 -.29827300295E+01 -.41044035204E+01 -.57432812977E+01
 -.79146584396E+01 -.95728632498E+01 -.11251181949E+02 -.14078688817E+02 -.16677238922E+02
 -.17770973531E+02 -.16680608605E+02 -.14088634046E+02 -.11271807402E+02 -.95921457791E+01
 -.79350750235E+01 -.57713934777E+01 -.41400418076E+01 -.30283103425E+01 -.24437279903E+01
 -.22416238912E+01 -.24016664720E+01 -.26867249087E+01 -.29894093640E+01 -.32248271542E+01
 -.33030800068E+01 -.32260250974E+01 -.29916405948E+01 -.26900983815E+01 -.24057079105E+01
 -.22464552274E+01 -.24491012448E+01 -.30341887567E+01 -.41459397756E+01 -.57773800937E+01
 -.79404207004E+01 -.95964006147E+01 -.11272753453E+02 -.14091154865E+02 -.16684409335E+02
 -.17777883528E+02 -.16688388970E+02 -.14101811290E+02 -.11293602512E+02 -.96176450208E+01
 -.79636233825E+01 -.58087699285E+01 -.41849661187E+01 -.30833466678E+01 -.25022758811E+01
 -.23111214016E+01 -.24628607350E+01 -.27424373421E+01 -.30291871022E+01 -.32464475208E+01
 -.11885407375E+01 -.11356197474E+01 -.10398692479E+01 -.10165953614E+01 -.11086726797E+01
 -.15003374753E+01 -.22072035148E+01 -.34775838169E+01 -.53229095407E+01 -.79177028106E+01
 -.10066616091E+02 -.13425483048E+02 -.20100591374E+02 -.27821511938E+02 -.33993918941E+02
 -.36328858475E+02 -.33990584552E+02 -.27816993530E+02 -.20105243245E+02 -.13445526457E+02
 -.10084782081E+02 -.79357663876E+01 -.53467643690E+01 -.35062369130E+01 -.22419970783E+01
 -.15332943407E+01 -.11471669350E+01 -.10481454671E+01 -.10657216788E+01 -.11494401035E+01
 -.11879645623E+01 -.11504603224E+01 -.10677745602E+01 -.10508538980E+01 -.11507466805E+01
 -.15373623669E+01 -.22465697696E+01 -.35109712452E+01 -.53518068754E+01 -.79404405364E+01
 -.10088671354E+02 -.13445937312E+02 -.20107615062E+02 -.27820298914E+02 -.33992086700E+02
 -.36326634454E+02 -.33990101664E+02 -.27818216210E+02 -.20114213767E+02 -.13466221937E+02
 -.10108702364E+02 -.79611635527E+01 -.53786006262E+01 -.35424616300E+01 -.22846811064E+01
 -.15723713688E+01 -.11917206210E+01 -.10845647961E+01 -.10951577243E+01 -.11657986913E+01
 0.36288949689E+00 0.34147294826E+00 0.21842276986E+00 0.45535136967E-01 -.40524167433E+00
 -.11221088881E+01 -.23818714971E+01 -.41766505613E+01 -.69239864628E+01 -.95786524571E+01
 -.13427944499E+02 -.22872947723E+02 -.36496693318E+02 -.49490362020E+02 -.58633301516E+02
 -.61779747476E+02 -.58633531821E+02 -.49490112703E+02 -.36487314777E+02 -.22872153659E+02
 -.13445200792E+02 -.95928579130E+01 -.69382642654E+01 -.41953339361E+01 -.24023214671E+01
 -.11474830460E+01 -.42437983171E+00 0.25657244198E-01 0.20541384447E+00 0.33506069030E+00
 0.36371932947E+00 0.33416060132E+00 0.20374883472E+00 0.23121533634E-01 -.42732277053E+00
 -.11509452464E+01 -.24060432240E+01 -.41993501188E+01 -.69421674379E+01 -.95967653856E+01
 -.13446635518E+02 -.22875605426E+02 -.36493173034E+02 -.49492846645E+02 -.58635768038E+02
 -.61782814993E+02 -.58636820439E+02 -.49494166516E+02 -.36487480137E+02 -.22877565691E+02
 -.13464011022E+02 -.96127332689E+01 -.69587376121E+01 -.42204166188E+01 -.24283469414E+01
 -.11790120762E+01 -.44825929172E+00 0.15104589350E-02 0.18901603940E+00 0.32627666169E+00
 0.13133625980E+01 0.12572040643E+01 0.10845281435E+01 0.65152350119E+00 0.41043879960E-01
 -.10368988907E+01 -.26750454748E+01 -.50568145993E+01 -.82971617327E+01 -.11258405065E+02
 -.20103126269E+02 -.36496873306E+02 -.55247888572E+02 -.72515305690E+02 -.84067258985E+02
 -.88347918912E+02 -.84064044611E+02 -.72510446489E+02 -.55249734966E+02 -.36488813982E+02
 -.20105186072E+02 -.11271678371E+02 -.83048483007E+01 -.50685385895E+01 -.26874327569E+01
 -.10487130858E+01 0.25527901573E-01 0.64089705522E+00 0.10764178140E+01 0.12526815937E+01
 0.13139613062E+01 0.12520255613E+01 0.10749417495E+01 0.63910058050E+00 0.22816949081E-01
 -.10513580280E+01 -.26908289817E+01 -.50712968677E+01 -.83087412462E+01 -.11273973937E+02
 -.20108609309E+02 -.36492848073E+02 -.55252254384E+02 -.72512411480E+02 -.84066513107E+02
 -.88345389403E+02 -.84064315936E+02 -.72509512436E+02 -.55255456640E+02 -.36488481195E+02
 -.20112459864E+02 -.11287156725E+02 -.83184745883E+01 -.50843599116E+01 -.27055813118E+01
 -.10641050764E+01 0.52703041712E-02 0.62721978053E+00 0.10653492431E+01 0.12464140365E+01
 0.19080419906E+01 0.18069796129E+01 0.15699934425E+01 0.10832218441E+01 0.20983914021E+00
 -.10568252735E+01 -.29828963979E+01 -.59496326019E+01 -.90540650942E+01 -.14084746226E+02
 -.27822998055E+02 -.49492195402E+02 -.72515955845E+02 -.92471366138E+02 -.10508065795E+03
 -.10956200323E+03 -.10507962197E+03 -.92468401525E+02 -.72510427088E+02 -.49490846986E+02
 -.27818658707E+02 -.14089197856E+02 -.90608973321E+01 -.59546697820E+01 -.29902609416E+01
 -.10663530120E+01 0.20511326333E+00 0.10761892729E+01 0.15655367935E+01 0.18050913689E+01
 0.19084647385E+01 0.18046102918E+01 0.15645767704E+01 0.10746674665E+01 0.20302658975E+00
 -.10686367172E+01 -.29928306189E+01 -.59570934258E+01 -.90641136934E+01 -.14092123882E+02
 -.27821042238E+02 -.49493313419E+02 -.72513005729E+02 -.92471071842E+02 -.10508058174E+03
 -.10956290769E+03 -.10508011864E+03 -.92469423662E+02 -.72509395709E+02 -.49493510606E+02
 -.27819039356E+02 -.14097020042E+02 -.90713383115E+01 -.59634767532E+01 -.30007684443E+01
 -.10798689108E+01 0.19761468553E+00 0.10664500967E+01 0.15592360914E+01 0.18018982584E+01
 0.21661922911E+01 0.21070541840E+01 0.18075521783E+01 0.12548251659E+01 0.34196865584E+00
 -.11482342767E+01 -.32215800153E+01 -.65474106532E+01 -.95023050416E+01 -.16682000986E+02
 -.33995696711E+02 -.58635982544E+02 -.84067878089E+02 -.10508140650E+03 -.11856493035E+03
 -.12304374362E+03 -.11856307035E+03 -.10507935953E+03 -.84066297105E+02 -.58633929685E+02
 -.33992980436E+02 -.16682074172E+02 -.95056847410E+01 -.65494445458E+01 -.32257620154E+01
 -.11499340831E+01 0.33461489912E+00 0.12524500003E+01 0.18049824911E+01 0.21059288116E+01
 0.21661851153E+01 0.21056026104E+01 0.18042185906E+01 0.12514654716E+01 0.33308997356E+00
 -.11518668896E+01 -.32276205959E+01 -.65513410822E+01 -.95087487553E+01 -.16684945046E+02
 -.33992983094E+02 -.58636563475E+02 -.84066017635E+02 -.10508089213E+03 -.11856170514E+03
 -.12304270886E+03 -.11856012256E+03 -.10507940299E+03 -.84065465464E+02 -.58635240838E+02
 -.33991580178E+02 -.16685426852E+02 -.95119349718E+01 -.65540863838E+01 -.32323777383E+01
 -.11537092361E+01 0.32518855356E+00 0.12485962981E+01 0.18015291733E+01 0.21039479714E+01
 0.23067406783E+01 0.21671898698E+01 0.19101619549E+01 0.13166465731E+01 0.36241640022E+00
 -.11849358488E+01 -.33021209359E+01 -.67769556206E+01 -.96477450177E+01 -.17775801049E+02
 -.36331266650E+02 -.61782646980E+02 -.88349556890E+02 -.10956328289E+03 -.12304403617E+03
 -.12741894422E+03 -.12304400534E+03 -.10956253535E+03 -.88347657265E+02 -.61781533074E+02
 -.36329937377E+02 -.17774630420E+02 -.96479468040E+01 -.67777422552E+01 -.33036125073E+01
 -.11886453125E+01 0.36345924830E+00 0.13135932241E+01 0.19083580371E+01 0.21660579690E+01
 0.23066338765E+01 0.21659383831E+01 0.19078150944E+01 0.13129057718E+01 0.36215291349E+00
 -.11897094665E+01 -.33053160756E+01 -.67786497241E+01 -.96509935173E+01 -.17776308653E+02
 -.36329262429E+02 -.61782320427E+02 -.88347329782E+02 -.10956268130E+03 -.12304319208E+03
 -.12741856780E+03 -.12304315261E+03 -.10956189202E+03 -.88345384820E+02 -.61781149854E+02
 -.36327869781E+02 -.17775019911E+02 -.96510046264E+01 -.67793009479E+01 -.33063007186E+01
 -.11936838614E+01 0.36373449407E+00 0.13100262905E+01 0.19062438716E+01 0.21652389120E+01
 0.21663761794E+01 0.21060714963E+01 0.18051532651E+01 0.12521670949E+01 0.33804219072E+00
 -.11516691868E+01 -.32262353688E+01 -.65500212670E+01 -.95079285169E+01 -.16684593883E+02
 -.33994171965E+02 -.58636558826E+02 -.84066509890E+02 -.10508115414E+03 -.11856424666E+03
 -.12304423660E+03 -.11856348456E+03 -.10508074762E+03 -.84067692089E+02 -.58635477918E+02
 -.33994526576E+02 -.16683253469E+02 -.95062346996E+01 -.65505945311E+01 -.32264542266E+01
 -.11509301348E+01 0.33397114284E+00 0.12516983716E+01 0.18045576130E+01 0.21054645389E+01
 0.21659215993E+01 0.21052658944E+01 0.18040580496E+01 0.12513168102E+01 0.33313391723E+00
 -.11517365653E+01 -.32274041624E+01 -.65510825581E+01 -.95081927379E+01 -.16684319863E+02
 -.33992820669E+02 -.58635866342E+02 -.84065706505E+02 -.10508012972E+03 -.11856162922E+03
 -.12304225730E+03 -.11856054537E+03 -.10507911019E+03 -.84065817201E+02 -.58633881020E+02
 -.33991765470E+02 -.16682322987E+02 -.95063602520E+01 -.65506371101E+01 -.32272673934E+01
 -.11494825581E+01 0.32959549586E+00 0.12520815251E+01 0.18043882820E+01 0.21055807302E+01
 0.19085307207E+01 0.18054779602E+01 0.15658236930E+01 0.10767852754E+01 0.20100502276E+00
 -.10660141379E+01 -.29918128617E+01 -.59567389182E+01 -.90636355767E+01 -.14092675099E+02
 -.27820998942E+02 -.49493471888E+02 -.72513408476E+02 -.92470854848E+02 -.10508061508E+03
 -.10956335928E+03 -.10508115674E+03 -.92471392217E+02 -.72513289811E+02 -.49493612560E+02
 -.27821631203E+02 -.14090921944E+02 -.90623928673E+01 -.59566632651E+01 -.29918315218E+01
 -.10681306778E+01 0.20372109003E+00 0.10748631798E+01 0.15645801049E+01 0.18041854444E+01
 0.19078418177E+01 0.18040594382E+01 0.15642390445E+01 0.10744165565E+01 0.20311483370E+00
 -.10683767097E+01 -.29924303566E+01 -.59566009856E+01 -.90632260766E+01 -.14090966688E+02
 -.27820528842E+02 -.49492203062E+02 -.72512189835E+02 -.92469535628E+02 -.10507970721E+03
 -.10956163439E+03 -.10507964918E+03 -.92468659181E+02 -.72510030882E+02 -.49490698847E+02
 -.27818665097E+02 -.14088580438E+02 -.90612652273E+01 -.59549169733E+01 -.29908498106E+01
 -.10692858121E+01 0.20762284284E+00 0.10741528442E+01 0.15644325792E+01 0.18045849032E+01
 0.13141188926E+01 0.12519317742E+01 0.10751158070E+01 0.63866421499E+00 0.26848682077E-01
 -.10522376604E+01 -.26902515309E+01 -.50708805384E+01 -.83083876454E+01 -.11274763743E+02
 -.20108873000E+02 -.36492003248E+02 -.55252163158E+02 -.72512909311E+02 -.84067681166E+02
 -.88348364191E+02 -.84067441978E+02 -.72513488359E+02 -.55252935949E+02 -.36493560426E+02
 -.20108531348E+02 -.11272980873E+02 -.83081736245E+01 -.50706504133E+01 -.26903460433E+01
 -.10507406444E+01 0.23120552230E-01 0.63923913174E+00 0.10747618453E+01 0.12516494973E+01
 0.13129095633E+01 0.12513715688E+01 0.10743731324E+01 0.63897491024E+00 0.22954271818E-01
 -.10510952889E+01 -.26901720922E+01 -.50707388729E+01 -.83076254861E+01 -.11272729008E+02
 -.20107113178E+02 -.36491995451E+02 -.55250514495E+02 -.72511466810E+02 -.84064300952E+02
 -.88345086958E+02 -.84062983267E+02 -.72510030798E+02 -.55249889893E+02 -.36489669912E+02
 -.20104923328E+02 -.11270846403E+02 -.83051353668E+01 -.50688576936E+01 -.26881608952E+01
 -.10472153925E+01 0.21364417502E-01 0.64164616520E+00 0.10765255875E+01 0.12528483529E+01
 0.36376847989E+00 0.33493518614E+00 0.20471114028E+00 0.24777565465E-01 -.42984308546E+00
 -.11489050605E+01 -.24051935815E+01 -.41991403720E+01 -.69416141994E+01 -.95968905305E+01
 -.13447773880E+02 -.22875773291E+02 -.36492600225E+02 -.49493243414E+02 -.58635632083E+02
 -.61782743433E+02 -.58636336713E+02 -.49493783624E+02 -.36493081008E+02 -.22876374120E+02
 -.13446837349E+02 -.95963474035E+01 -.69416193453E+01 -.41988117940E+01 -.24054242553E+01
 -.11505599668E+01 -.42696487751E+00 0.23272219700E-01 0.20342604531E+00 0.33337160068E+00
 0.36248331132E+00 0.33329317680E+00 0.20327952796E+00 0.22967814264E-01 -.42725848886E+00
 -.11504531430E+01 -.24054647253E+01 -.41983923379E+01 -.69412397684E+01 -.95951811875E+01
 -.13445164818E+02 -.22874149286E+02 -.36491360954E+02 -.49490904273E+02 -.58633927780E+02
 -.61779934708E+02 -.58633796229E+02 -.49489807305E+02 -.36487955284E+02 -.22872042278E+02
 -.13444105398E+02 -.95927134440E+01 -.69387671604E+01 -.41954477808E+01 -.24027939699E+01
 -.11498453827E+01 -.42140131019E+00 0.24057457415E-01 0.20455917855E+00 0.33463166423E+00
 -.11878135595E+01 -.11507296670E+01 -.10679378436E+01 -.10514556230E+01 -.11469840631E+01
 -.15380409118E+01 -.22461928421E+01 -.35100871369E+01 -.53515449102E+01 -.79399813675E+01
 -.10088885127E+02 -.13447312950E+02 -.20107982058E+02 -.27820861951E+02 -.33994295734E+02
 -.36330081179E+02 -.33994140071E+02 -.27821304983E+02 -.20108957575E+02 -.13447164751E+02
 -.10088705715E+02 -.79398492308E+01 -.53510896255E+01 -.35101689728E+01 -.22459095798E+01
 -.15367000916E+01 -.11503975154E+01 -.10508866182E+01 -.10680966525E+01 -.11512920004E+01
 -.11893999208E+01 -.11514447149E+01 -.10683066498E+01 -.10510066055E+01 -.11504598374E+01
 -.15369378023E+01 -.22457185913E+01 -.35100488179E+01 -.53504311934E+01 -.79390898155E+01
 -.10086705370E+02 -.13444517014E+02 -.20105836600E+02 -.27818608204E+02 -.33990094527E+02
 -.36325638649E+02 -.33988545432E+02 -.27816591961E+02 -.20104998023E+02 -.13444268256E+02
 -.10084607846E+02 -.79362252142E+01 -.53469722456E+01 -.35070548333E+01 -.22425164846E+01
 -.15320198792E+01 -.11510645066E+01 -.10472462252E+01 -.10652865364E+01 -.11491281810E+01
 -.33030333365E+01 -.32251775493E+01 -.29905946243E+01 -.26884084649E+01 -.24082095732E+01
 -.22444641798E+01 -.24480428590E+01 -.30337724291E+01 -.41450890796E+01 -.57770936534E+01
 -.79401269172E+01 -.95965670570E+01 -.11273989413E+02 -.14091605176E+02 -.16683762472E+02
 -.17776177947E+02 -.16684360172E+02 -.14092027105E+02 -.11273905611E+02 -.95965952657E+01
 -.79397027053E+01 -.57764433629E+01 -.41447724896E+01 -.30330692412E+01 -.24479711455E+01
 -.22456541267E+01 -.24051472176E+01 -.26898742405E+01 -.29921173060E+01 -.32270820398E+01
 -.33047295456E+01 -.32270426146E+01 -.29921481941E+01 -.26901375805E+01 -.24054880574E+01
 -.22457441991E+01 -.24482681047E+01 -.30328570947E+01 -.41445551541E+01 -.57754712844E+01
 -.79385718480E+01 -.95939454804E+01 -.11270845399E+02 -.14088467741E+02 -.16681372887E+02
 -.17772813200E+02 -.16681423052E+02 -.14088334720E+02 -.11270729869E+02 -.95920715331E+01
 -.79354131814E+01 -.57716734596E+01 -.41408561740E+01 -.30286330801E+01 -.24444228529E+01
 -.22439349273E+01 -.23987051361E+01 -.26883631702E+01 -.29903492383E+01 -.32253306571E+01
 -.67763843463E+01 -.65499715672E+01 -.59561842575E+01 -.50711915553E+01 -.41951654740E+01
 -.35113893809E+01 -.30337571043E+01 -.29589648065E+01 -.33222463300E+01 -.41453376212E+01
 -.53516537037E+01 -.69419574747E+01 -.83081456046E+01 -.90633022092E+01 -.95083955830E+01
 -.96502530096E+01 -.95083522898E+01 -.90635062155E+01 -.83082290974E+01 -.69412503241E+01
 -.53508306721E+01 -.41445404901E+01 -.33210813711E+01 -.29583370959E+01 -.30327061640E+01
 -.35095921338E+01 -.41981832402E+01 -.50705211495E+01 -.59562060833E+01 -.65505185636E+01
 -.67781712643E+01 -.65507554241E+01 -.59565175681E+01 -.50706623248E+01 -.41984562249E+01
 -.35101919112E+01 -.30329495440E+01 -.29586860495E+01 -.33207558370E+01 -.41440775329E+01
 -.53493438303E+01 -.69396512958E+01 -.83052366138E+01 -.90601094462E+01 -.95044333843E+01
 -.96470761440E+01 -.95043944305E+01 -.90596972575E+01 -.83030732042E+01 -.69364703079E+01
 -.53455174460E+01 -.41398889961E+01 -.33159386547E+01 -.29542979400E+01 -.30283965192E+01
 -.35042193323E+01 -.41981597084E+01 -.50662406090E+01 -.59529025664E+01 -.65479537449E+01
 -.96475682163E+01 -.95052430191E+01 -.90612934433E+01 -.83061844528E+01 -.69443564684E+01
 -.53497993085E+01 -.41449357270E+01 -.33223678658E+01 -.29593108912E+01 -.30341276036E+01
 -.35107576204E+01 -.41993444987E+01 -.50714349993E+01 -.59571376782E+01 -.65507194548E+01
 -.67786456196E+01 -.65507470871E+01 -.59566010115E+01 -.50704185117E+01 -.41984472974E+01
 -.35095377943E+01 -.30325704740E+01 -.29580201105E+01 -.33206131265E+01 -.41439786882E+01
 -.53501286262E+01 -.69406703979E+01 -.83070367415E+01 -.90628038555E+01 -.95075084798E+01
 -.96496299397E+01 -.95071669847E+01 -.90626178718E+01 -.83076521250E+01 -.69414140241E+01
 -.53506623781E+01 -.41447916311E+01 -.33209260861E+01 -.29582674957E+01 -.30318962657E+01
 -.35086001429E+01 -.41962021758E+01 -.50680213876E+01 -.59531569486E+01 -.65470456913E+01
 -.67737810447E+01 -.65461572261E+01 -.59510668094E+01 -.50653864086E+01 -.41927019205E+01
 -.35042790482E+01 -.30268069518E+01 -.29531945848E+01 -.33152804538E+01 -.41396859765E+01
 -.53476270571E+01 -.69336411241E+01 -.83049889446E+01 -.90604262026E+01 -.95051967024E+01
 -.17773216075E+02 -.16682735766E+02 -.14090708877E+02 -.11273748914E+02 -.95927378435E+01
 -.79411648078E+01 -.57773183429E+01 -.41453562961E+01 -.30343367133E+01 -.24489448151E+01
 -.22468027373E+01 -.24060308097E+01 -.26906037143E+01 -.29924756327E+01 -.32278142242E+01
 -.33048713597E+01 -.32273190536E+01 -.29919898327E+01 -.26899548262E+01 -.24046296618E+01
 -.22451015635E+01 -.24471288332E+01 -.30320266863E+01 -.41436020373E+01 -.57751694230E+01
 -.79384230220E+01 -.95951033068E+01 -.11273258645E+02 -.14090877694E+02 -.16683504104E+02
 -.17775277072E+02 -.16683465323E+02 -.14090525458E+02 -.11272473506E+02 -.95954237790E+01
 -.79395081158E+01 -.57759443832E+01 -.41444441161E+01 -.30321524987E+01 -.24469794849E+01
 -.22437541977E+01 -.24029389923E+01 -.26868132508E+01 -.29884018437E+01 -.32226048800E+01
 -.33000803149E+01 -.32216006849E+01 -.29866851394E+01 -.26838119084E+01 -.23988928749E+01
 -.22388494647E+01 -.24416088407E+01 -.30260515368E+01 -.41387806570E+01 -.57701134543E+01
 -.79324512462E+01 -.95944958650E+01 -.11268184604E+02 -.14086763506E+02 -.16680364111E+02
 -.36327182776E+02 -.33991246541E+02 -.27819035380E+02 -.20106210333E+02 -.13449462615E+02
 -.10087349269E+02 -.79400160110E+01 -.53522353670E+01 -.35109176620E+01 -.22471185548E+01
 -.15376182461E+01 -.11513556140E+01 -.10516074109E+01 -.10687824656E+01 -.11511882182E+01
 -.11895192347E+01 -.11510512999E+01 -.10679280729E+01 -.10501384047E+01 -.11497422914E+01
 -.15355405201E+01 -.22445002972E+01 -.35085309567E+01 -.53493169799E+01 -.79379908714E+01
 -.10086978376E+02 -.13446288136E+02 -.20106797772E+02 -.27819115471E+02 -.33992090029E+02
 -.36328709369E+02 -.33992952840E+02 -.27820563882E+02 -.20107295738E+02 -.13445537400E+02
 -.10087380057E+02 -.79392423405E+01 -.53500993938E+01 -.35091295757E+01 -.22441097388E+01
 -.15346936669E+01 -.11473994416E+01 -.10473404864E+01 -.10637624575E+01 -.11464435594E+01
 -.11835818467E+01 -.11453992507E+01 -.10613027091E+01 -.10439851620E+01 -.11430490247E+01
 -.15294590579E+01 -.22379731307E+01 -.35029785472E+01 -.53432933218E+01 -.79330997970E+01
 -.10083902631E+02 -.13438581668E+02 -.20104318269E+02 -.27817097184E+02 -.33990429149E+02
 -.61779353809E+02 -.58634579693E+02 -.49492783800E+02 -.36493712490E+02 -.22872452435E+02
 -.13447817386E+02 -.95972870739E+01 -.69421519117E+01 -.42001667110E+01 -.24063109391E+01
 -.11517046761E+01 -.42776608984E+00 0.22539411160E-01 0.20314970495E+00 0.33271161127E+00
 0.36257122404E+00 0.33338297221E+00 0.20396969260E+00 0.23752633448E-01 -.42571430465E+00
 -.11491507072E+01 -.24036012844E+01 -.41968218707E+01 -.69393821675E+01 -.95944570910E+01
 -.13445982354E+02 -.22873258925E+02 -.36489324120E+02 -.49491119722E+02 -.58634401813E+02
 -.61781179370E+02 -.58634946319E+02 -.49492240610E+02 -.36492398026E+02 -.22874984506E+02
 -.13445579236E+02 -.95951004055E+01 -.69406672193E+01 -.41972338009E+01 -.24036561435E+01
 -.11478282618E+01 -.42391857491E+00 0.27267645949E-01 0.20816417603E+00 0.33914271591E+00