 vasp.5.4.1 24Jun15 (build Mar  6 2017 20:45:23) complex                         
 executed on           IFC91_ompi date 2017.05.31  14:52:21
 running on    1 total cores
 distrk:  each k-point on    1 cores,    1 groups
 distr:  one band on NCORES_PER_BAND=   1 cores,    1 groups


--------------------------------------------------------------------------------------------------------


 INCAR:
 POTCAR:    PAW_PBE Al 04Jan2001                  
 POTCAR:    PAW_PBE Al 04Jan2001                  
   VRHFIN =Al: s2p1                                                             
   LEXCH  = PE                                                                  
   EATOM  =    53.5387 eV,    3.9350 Ry                                         
                                                                                
   TITEL  = PAW_PBE Al 04Jan2001                                                
   LULTRA =        F    use ultrasoft PP ?                                      
   IUNSCR =        1    unscreen: 0-lin 1-nonlin 2-no                           
   RPACOR =    1.500    partial core radius                                     
   POMASS =   26.981; ZVAL   =    3.000    mass and valenz                      
   RCORE  =    1.900    outmost cutoff radius                                   
   RWIGS  =    2.650; RWIGS  =    1.402    wigner-seitz radius (au A)           
   ENMAX  =  240.300; ENMIN  =  180.225 eV                                      
   ICORE  =        2    local potential                                         
   LCOR   =        T    correct aug charges                                     
   LPAW   =        T    paw PP                                                  
   EAUG   =  291.052                                                            
   DEXC   =    0.000                                                            
   RMAX   =    1.939    core radius for proj-oper                               
   RAUG   =    1.300    factor for augmentation sphere                          
   RDEP   =    1.966    radius for radial grids                                 
   RDEPT  =    1.856    core radius for aug-charge                              
                                                                                
   Atomic configuration                                                         
    6 entries                                                                   
     n  l   j            E        occ.                                          
     1  0  0.50     -1511.1048   2.0000                                         
     2  0  0.50      -108.1629   2.0000                                         
     2  1  1.50       -69.6402   6.0000                                         
     3  0  0.50        -7.7528   2.0000                                         
     3  1  1.50        -2.7121   1.0000                                         
     3  2  2.50        -2.7212   0.0000                                         
   Description                                                                  
     l       E           TYP  RCUT    TYP  RCUT                                 
     0     -7.7528455     23  1.900                                             
     0     -3.3096929     23  1.900                                             
     1     -2.7120682     23  1.900                                             
     1     13.6058260     23  1.900                                             
     2     -2.7211652      7  1.900                                             
  local pseudopotential read in
  partial core-charges read in
  partial kinetic energy density read in
  atomic valenz-charges read in
  non local Contribution for L=           0  read in
    real space projection operators read in
  non local Contribution for L=           0  read in
    real space projection operators read in
  non local Contribution for L=           1  read in
    real space projection operators read in
  non local Contribution for L=           1  read in
    real space projection operators read in
    PAW grid and wavefunctions read in

   number of l-projection  operators is LMAX  =           4
   number of lm-projection operators is LMMAX =           8

  PAW_PBE Al 04Jan2001                  :
 energy of atom  1       EATOM=  -53.5387
 kinetic energy error for atom=    0.0002 (will be added to EATOM!!)


 POSCAR: elephon created this file.              
  positions in direct lattice
  No initial velocities read in
 exchange correlation table for  LEXCH =        8
   RHO(1)=    0.500       N(1)  =     2000
   RHO(2)=  100.500       N(2)  =     4000



--------------------------------------------------------------------------------------------------------


 ion  position               nearest neighbor table
   1  0.999  0.000  0.000-  11 2.85  12 2.85  16 2.85  11 2.85   2 2.86   2 2.86   6 2.86   6 2.86
                             4 2.86   3 2.86   3 2.86   8 2.86
   2  0.000  0.250  0.500-   3 2.86   4 2.86   5 2.86   7 2.86  11 2.86  12 2.86  15 2.86   4 2.86
                             5 2.86  12 2.86   1 2.86   1 2.86
   3  0.250  0.000  0.500-   2 2.86   4 2.86   6 2.86   8 2.86   9 2.86  10 2.86  14 2.86   4 2.86
                             8 2.86   9 2.86   1 2.86   1 2.86
   4  0.250  0.250  0.000-   2 2.86   3 2.86   5 2.86   7 2.86   9 2.86  10 2.86  13 2.86   2 2.86
                             3 2.86   7 2.86  10 2.86   1 2.86
   5  0.000  0.500  0.000-   2 2.86   4 2.86   6 2.86   7 2.86   8 2.86  12 2.86  15 2.86  16 2.86
                             2 2.86   6 2.86   7 2.86  15 2.86
   6  0.000  0.750  0.500-   3 2.86   5 2.86   7 2.86   8 2.86  11 2.86  15 2.86  16 2.86   5 2.86
                             8 2.86  16 2.86   1 2.86   1 2.86
   7  0.250  0.500  0.500-   2 2.86   4 2.86   5 2.86   6 2.86   8 2.86  10 2.86  13 2.86  14 2.86
                             4 2.86   5 2.86   8 2.86  13 2.86
   8  0.250  0.750  0.000-   3 2.86   5 2.86   6 2.86   7 2.86   9 2.86  13 2.86  14 2.86   3 2.86
                             6 2.86   7 2.86  14 2.86   1 2.86
   9  0.500  0.000  0.000-   3 2.86   4 2.86   8 2.86  10 2.86  11 2.86  12 2.86  14 2.86  16 2.86
                             3 2.86  10 2.86  11 2.86  14 2.86
  10  0.500  0.250  0.500-   3 2.86   4 2.86   7 2.86   9 2.86  11 2.86  12 2.86  13 2.86  15 2.86
                             4 2.86   9 2.86  12 2.86  13 2.86
  11  0.750  0.000  0.500-   1 2.85   1 2.85   6 2.86   9 2.86  10 2.86  12 2.86  14 2.86  16 2.86
                             2 2.86   9 2.86  12 2.86  16 2.86
  12  0.750  0.250  0.000-   1 2.85   2 2.86   5 2.86   9 2.86  10 2.86  11 2.86  13 2.86  15 2.86
                             2 2.86  10 2.86  11 2.86  15 2.86
  13  0.500  0.500  0.000-   4 2.86   7 2.86   8 2.86  10 2.86  12 2.86  14 2.86  15 2.86  16 2.86
                             7 2.86  10 2.86  14 2.86  15 2.86
  14  0.500  0.750  0.500-   3 2.86   7 2.86   8 2.86   9 2.86  11 2.86  13 2.86  15 2.86  16 2.86
                             8 2.86   9 2.86  13 2.86  16 2.86
  15  0.750  0.500  0.500-   2 2.86   5 2.86   6 2.86  10 2.86  12 2.86  13 2.86  14 2.86  16 2.86
                             5 2.86  12 2.86  13 2.86  16 2.86
  16  0.750  0.750  0.000-   1 2.85   5 2.86   6 2.86   9 2.86  11 2.86  13 2.86  14 2.86  15 2.86
                             6 2.86  11 2.86  14 2.86  15 2.86

  LATTYP: Found a simple tetragonal cell.
 ALAT       =     8.0778600000
 C/A-ratio  =     0.5000000000
  
  Lattice vectors:
  
 A1 = (   8.0778600000,   0.0000000000,   0.0000000000)
 A2 = (   0.0000000000,   8.0778600000,   0.0000000000)
 A3 = (   0.0000000000,   0.0000000000,   4.0389300000)


Analysis of symmetry for initial positions (statically):
=====================================================================
 Subroutine PRICEL returns:
 Original cell was already a primitive cell.
 

 Routine SETGRP: Setting up the symmetry group for a 
 simple tetragonal supercell.


 Subroutine GETGRP returns: Found  4 space group operations
 (whereof  4 operations were pure point group operations)
 out of a pool of 16 trial point group operations.


The static configuration has the point symmetry C_2v.


Analysis of symmetry for dynamics (positions and initial velocities):
=====================================================================
 Subroutine PRICEL returns:
 Original cell was already a primitive cell.
 

 Routine SETGRP: Setting up the symmetry group for a 
 simple tetragonal supercell.


 Subroutine GETGRP returns: Found  4 space group operations
 (whereof  4 operations were pure point group operations)
 out of a pool of 16 trial point group operations.


The dynamic configuration has the point symmetry C_2v.


 irot  :   1
 --------------------------------------------------------------------
 isymop:   1   0   0
           0   1   0
           0   0   1

 gtrans:     0.0000000     0.0000000     0.0000000

 ptrans:     0.0000000     0.0000000     0.0000000
 rotmap:
 (   1->   1)  (   2->   2)  (   3->   3)  (   4->   4)  (   5->   5) 
 (   6->   6)  (   7->   7)  (   8->   8)  (   9->   9)  (  10->  10) 
 (  11->  11)  (  12->  12)  (  13->  13)  (  14->  14)  (  15->  15) 
 (  16->  16) 


 irot  :   2
 --------------------------------------------------------------------
 isymop:   1   0   0
           0   1   0
           0   0  -1

 gtrans:     0.0000000     0.0000000     0.0000000

 ptrans:     0.0000000     0.0000000     0.0000000
 rotmap:
 (   1->   1)  (   2->   2)  (   3->   3)  (   4->   4)  (   5->   5) 
 (   6->   6)  (   7->   7)  (   8->   8)  (   9->   9)  (  10->  10) 
 (  11->  11)  (  12->  12)  (  13->  13)  (  14->  14)  (  15->  15) 
 (  16->  16) 


 irot  :   3
 --------------------------------------------------------------------
 isymop:   1   0   0
           0  -1   0
           0   0   1

 gtrans:     0.0000000     0.0000000     0.0000000

 ptrans:     0.0000000     0.0000000     0.0000000
 rotmap:
 (   1->   1)  (   2->   6)  (   3->   3)  (   4->   8)  (   5->   5) 
 (   6->   2)  (   7->   7)  (   8->   4)  (   9->   9)  (  10->  14) 
 (  11->  11)  (  12->  16)  (  13->  13)  (  14->  10)  (  15->  15) 
 (  16->  12) 


 irot  :   4
 --------------------------------------------------------------------
 isymop:   1   0   0
           0  -1   0
           0   0  -1

 gtrans:     0.0000000     0.0000000     0.0000000

 ptrans:     0.0000000     0.0000000     0.0000000
 rotmap:
 (   1->   1)  (   2->   6)  (   3->   3)  (   4->   8)  (   5->   5) 
 (   6->   2)  (   7->   7)  (   8->   4)  (   9->   9)  (  10->  14) 
 (  11->  11)  (  12->  16)  (  13->  13)  (  14->  10)  (  15->  15) 
 (  16->  12) 


 KPOINTS: elephon created this file               

Automatic generation of k-mesh.
Space group operators:
 irot       det(A)        alpha          n_x          n_y          n_z        tau_x        tau_y        tau_z
    1     1.000000     0.000001     1.000000     0.000000     0.000000     0.000000     0.000000     0.000000
    2    -1.000000   180.000000     0.000000     0.000000     1.000000     0.000000     0.000000     0.000000
    3    -1.000000   180.000000     0.000000     1.000000     0.000000     0.000000     0.000000     0.000000
    4     1.000000   180.000000     1.000000     0.000000     0.000000     0.000000     0.000000     0.000000
 
 Subroutine IBZKPT returns following result:
 ===========================================
 
 Found     12 irreducible k-points:
 
 Following reciprocal coordinates:
            Coordinates               Weight
  0.000000  0.000000  0.083333      2.000000
  0.333333  0.000000  0.083333      4.000000
  0.000000  0.333333  0.083333      4.000000
  0.333333  0.333333  0.083333      8.000000
  0.000000  0.000000  0.250000      2.000000
  0.333333  0.000000  0.250000      4.000000
  0.000000  0.333333  0.250000      4.000000
  0.333333  0.333333  0.250000      8.000000
  0.000000  0.000000  0.416667      2.000000
  0.333333  0.000000  0.416667      4.000000
  0.000000  0.333333  0.416667      4.000000
  0.333333  0.333333  0.416667      8.000000
 
 Following cartesian coordinates:
            Coordinates               Weight
  0.000000  0.000000  0.166667      2.000000
  0.333333  0.000000  0.166667      4.000000
  0.000000  0.333333  0.166667      4.000000
  0.333333  0.333333  0.166667      8.000000
  0.000000  0.000000  0.500000      2.000000
  0.333333  0.000000  0.500000      4.000000
  0.000000  0.333333  0.500000      4.000000
  0.333333  0.333333  0.500000      8.000000
  0.000000  0.000000  0.833333      2.000000
  0.333333  0.000000  0.833333      4.000000
  0.000000  0.333333  0.833333      4.000000
  0.333333  0.333333  0.833333      8.000000
 
 TETIRR: Found    140 inequivalent tetrahedra from      324


--------------------------------------------------------------------------------------------------------




 Dimension of arrays:
   k-points           NKPTS =     12   k-points in BZ     NKDIM =     12   number of bands    NBANDS=     33
   number of dos      NEDOS =    301   number of ions     NIONS =     16
   non local maximal  LDIM  =      4   non local SUM 2l+1 LMDIM =      8
   total plane-waves  NPLWV = 108000
   max r-space proj   IRMAX =      1   max aug-charges    IRDMAX=   2193
   dimension x,y,z NGX =    60 NGY =   60 NGZ =   30
   dimension x,y,z NGXF=    60 NGYF=   60 NGZF=   30
   support grid    NGXF=    60 NGYF=   60 NGZF=   30
   ions per type =              16
 NGX,Y,Z   is equivalent  to a cutoff of  12.35, 12.35, 12.35 a.u.
 NGXF,Y,Z  is equivalent  to a cutoff of  12.35, 12.35, 12.35 a.u.


 I would recommend the setting:
   dimension x,y,z NGX =    60 NGY =   60 NGZ =   30
 SYSTEM =  unknown system                          
 POSCAR =  elephon created this file.              

 Startparameter for this run:
   NWRITE =      3    write-flag & timer
   PREC   = high      normal or accurate (medium, high low for compatibility)
   ISTART =      0    job   : 0-new  1-cont  2-samecut
   ICHARG =      1    charge: 1-file 2-atom 10-const
   ISPIN  =      1    spin polarized calculation?
   LNONCOLLINEAR =      F non collinear calculations
   LSORBIT =      F    spin-orbit coupling
   INIWAV =      1    electr: 0-lowe 1-rand  2-diag
   LASPH  =      F    aspherical Exc in radial PAW
   METAGGA=      F    non-selfconsistent MetaGGA calc.

 Electronic Relaxation 1
   ENCUT  =  520.0 eV  38.22 Ry    6.18 a.u.  15.02 15.02  7.51*2*pi/ulx,y,z
   ENINI  =  520.0     initial cutoff
   ENAUG  =  291.1 eV  augmentation charge cutoff
   NELM   =    100;   NELMIN=  2; NELMDL=  0     # of ELM steps 
   EDIFF  = 0.2E-03   stopping-criterion for ELM
   LREAL  =      F    real-space projection
   NLSPLINE    = F    spline interpolate recip. space projectors
   LCOMPAT=      F    compatible to vasp.4.4
   GGA_COMPAT  = T    GGA compatible to vasp.4.4-vasp.4.6
   LMAXPAW     = -100 max onsite density
   LMAXMIX     =    2 max onsite mixed and CHGCAR
   VOSKOWN=      0    Vosko Wilk Nusair interpolation
   ROPT   =    0.00000
 Ionic relaxation
   EDIFFG = 0.2E-02   stopping-criterion for IOM
   NSW    =      0    number of steps for IOM
   NBLOCK =      1;   KBLOCK =      1    inner block; outer block 
   IBRION =     -1    ionic relax: 0-MD 1-quasi-New 2-CG
   NFREE  =      0    steps in history (QN), initial steepest desc. (CG)
   ISIF   =      3    stress and relaxation
   IWAVPR =     10    prediction:  0-non 1-charg 2-wave 3-comb
   ISYM   =      2    0-nonsym 1-usesym 2-fastsym
   LCORR  =      T    Harris-Foulkes like correction to forces

   POTIM  = 0.5000    time-step for ionic-motion
   TEIN   =    0.0    initial temperature
   TEBEG  =    0.0;   TEEND  =   0.0 temperature during run
   SMASS  =  -3.00    Nose mass-parameter (am)
   estimated Nose-frequenzy (Omega)   =  0.10E-29 period in steps =****** mass=  -0.149E-26a.u.
   SCALEE = 1.0000    scale energy and forces
   NPACO  =    256;   APACO  = 16.0  distance and # of slots for P.C.
   PSTRESS=    0.0 pullay stress

  Mass of Ions in am
   POMASS =  26.98
  Ionic Valenz
   ZVAL   =   3.00
  Atomic Wigner-Seitz radii
   RWIGS  =  -1.00
  virtual crystal weights 
   VCA    =   1.00
   NELECT =      48.0000    total number of electrons
   NUPDOWN=      -1.0000    fix difference up-down

 DOS related values:
   EMIN   =  10.00;   EMAX   =-10.00  energy-range for DOS
   EFERMI =   0.00
   ISMEAR =    -5;   SIGMA  =   0.05  broadening in eV -4-tet -1-fermi 0-gaus

 Electronic relaxation 2 (details)
   IALGO  =     68    algorithm
   LDIAG  =      T    sub-space diagonalisation (order eigenvalues)
   LSUBROT=      F    optimize rotation matrix (better conditioning)
   TURBO    =      0    0=normal 1=particle mesh
   IRESTART =      0    0=no restart 2=restart with 2 vectors
   NREBOOT  =      0    no. of reboots
   NMIN     =      0    reboot dimension
   EREF     =   0.00    reference energy to select bands
   IMIX   =      4    mixing-type and parameters
     AMIX     =   0.40;   BMIX     =  1.00
     AMIX_MAG =   1.60;   BMIX_MAG =  1.00
     AMIN     =   0.10
     WC   =   100.;   INIMIX=   1;  MIXPRE=   1;  MAXMIX= -45

 Intra band minimization:
   WEIMIN = 0.0000     energy-eigenvalue tresh-hold
   EBREAK =  0.15E-05  absolut break condition
   DEPER  =   0.30     relativ break condition  

   TIME   =   0.40     timestep for ELM

  volume/ion in A,a.u.               =      16.47       111.16
  Fermi-wavevector in a.u.,A,eV,Ry     =   0.927974  1.753616 11.716451  0.861135
  Thomas-Fermi vector in A             =   2.054101

 Write flags
   LWAVE  =      F    write WAVECAR
   LCHARG =      T    write CHGCAR
   LVTOT  =      T    write LOCPOT, total local potential
   LVHAR  =      F    write LOCPOT, Hartree potential only
   LELF   =      F    write electronic localiz. function (ELF)
   LORBIT =     11    0 simple, 1 ext, 2 COOP (PROOUT)


 Dipole corrections
   LMONO  =      F    monopole corrections only (constant potential shift)
   LDIPOL =      F    correct potential (dipole corrections)
   IDIPOL =      0    1-x, 2-y, 3-z, 4-all directions 
   EPSILON=  1.0000000 bulk dielectric constant

 Exchange correlation treatment:
   GGA     =    --    GGA type
   LEXCH   =     8    internal setting for exchange type
   VOSKOWN=      0    Vosko Wilk Nusair interpolation
   LHFCALC =     F    Hartree Fock is set to
   LHFONE  =     F    Hartree Fock one center treatment
   AEXX    =    0.0000 exact exchange contribution

 Linear response parameters
   LEPSILON=     F    determine dielectric tensor
   LRPA    =     F    only Hartree local field effects (RPA)
   LNABLA  =     F    use nabla operator in PAW spheres
   LVEL    =     F    velocity operator in full k-point grid
   LINTERFAST=   F  fast interpolation
   KINTER  =     0    interpolate to denser k-point grid
   CSHIFT  =0.1000    complex shift for real part using Kramers Kronig
   OMEGAMAX=  -1.0    maximum frequency
   DEG_THRESHOLD= 0.2000000E-02 threshold for treating states as degnerate
   RTIME   =    0.100 relaxation time in fs

 Orbital magnetization related:
   ORBITALMAG=     F  switch on orbital magnetization
   LCHIMAG   =     F  perturbation theory with respect to B field
   DQ        =  0.001000  dq finite difference perturbation B field



--------------------------------------------------------------------------------------------------------


 Static calculation
 charge density and potential will be updated during run
 non-spin polarized calculation
 RMM-DIIS sequential band-by-band and
  variant of blocked Davidson during initial phase
 perform sub-space diagonalisation
    before iterative eigenvector-optimisation
 modified Broyden-mixing scheme, WC =      100.0
 initial mixing is a Kerker type mixing with AMIX =  0.4000 and BMIX =      1.0000
 Hartree-type preconditioning will be used
 using additional bands            9
 reciprocal scheme for non local part
 use partial core corrections
 calculate Harris-corrections to forces   (improved forces if not selfconsistent)
 use gradient corrections 
 use of overlap-Matrix (Vanderbilt PP)
 Fermi weights with tetrahedron method with Bloechl corrections


--------------------------------------------------------------------------------------------------------


  energy-cutoff  :      520.00
  volume of cell :      263.55
      direct lattice vectors                 reciprocal lattice vectors
     8.077860000  0.000000000  0.000000000     0.123795164  0.000000000  0.000000000
     0.000000000  8.077860000  0.000000000     0.000000000  0.123795164  0.000000000
     0.000000000  0.000000000  4.038930000     0.000000000  0.000000000  0.247590327

  length of vectors
     8.077860000  8.077860000  4.038930000     0.123795164  0.123795164  0.247590327



 k-points in units of 2pi/SCALE and weight: elephon created this file               
   0.00000000  0.00000000  0.16666667       0.037
   0.33333333  0.00000000  0.16666667       0.074
   0.00000000  0.33333333  0.16666667       0.074
   0.33333333  0.33333333  0.16666667       0.148
   0.00000000  0.00000000  0.50000000       0.037
   0.33333333  0.00000000  0.50000000       0.074
   0.00000000  0.33333333  0.50000000       0.074
   0.33333333  0.33333333  0.50000000       0.148
   0.00000000  0.00000000  0.83333333       0.037
   0.33333333  0.00000000  0.83333333       0.074
   0.00000000  0.33333333  0.83333333       0.074
   0.33333333  0.33333333  0.83333333       0.148

 k-points in reciprocal lattice and weights: elephon created this file               
   0.00000000  0.00000000  0.08333333       0.037
   0.33333333  0.00000000  0.08333333       0.074
   0.00000000  0.33333333  0.08333333       0.074
   0.33333333  0.33333333  0.08333333       0.148
   0.00000000  0.00000000  0.25000000       0.037
   0.33333333  0.00000000  0.25000000       0.074
   0.00000000  0.33333333  0.25000000       0.074
   0.33333333  0.33333333  0.25000000       0.148
   0.00000000  0.00000000  0.41666667       0.037
   0.33333333  0.00000000  0.41666667       0.074
   0.00000000  0.33333333  0.41666667       0.074
   0.33333333  0.33333333  0.41666667       0.148

 position of ions in fractional coordinates (direct lattice) 
   0.99876200  0.00000000  0.00000000
   0.00000000  0.25000000  0.50000000
   0.25000000  0.00000000  0.50000000
   0.25000000  0.25000000  0.00000000
   0.00000000  0.50000000  0.00000000
   0.00000000  0.75000000  0.50000000
   0.25000000  0.50000000  0.50000000
   0.25000000  0.75000000  0.00000000
   0.50000000  0.00000000  0.00000000
   0.50000000  0.25000000  0.50000000
   0.75000000  0.00000000  0.50000000
   0.75000000  0.25000000  0.00000000
   0.50000000  0.50000000  0.00000000
   0.50000000  0.75000000  0.50000000
   0.75000000  0.50000000  0.50000000
   0.75000000  0.75000000  0.00000000

 position of ions in cartesian coordinates  (Angst):
   8.06785961  0.00000000  0.00000000
   0.00000000  2.01946500  2.01946500
   2.01946500  0.00000000  2.01946500
   2.01946500  2.01946500  0.00000000
   0.00000000  4.03893000  0.00000000
   0.00000000  6.05839500  2.01946500
   2.01946500  4.03893000  2.01946500
   2.01946500  6.05839500  0.00000000
   4.03893000  0.00000000  0.00000000
   4.03893000  2.01946500  2.01946500
   6.05839500  0.00000000  2.01946500
   6.05839500  2.01946500  0.00000000
   4.03893000  4.03893000  0.00000000
   4.03893000  6.05839500  2.01946500
   6.05839500  4.03893000  2.01946500
   6.05839500  6.05839500  0.00000000



--------------------------------------------------------------------------------------------------------


 k-point  1 :   0.0000 0.0000 0.0833  plane waves:    7103
 k-point  2 :   0.3333 0.0000 0.0833  plane waves:    7096
 k-point  3 :   0.0000 0.3333 0.0833  plane waves:    7096
 k-point  4 :   0.3333 0.3333 0.0833  plane waves:    7139
 k-point  5 :   0.0000 0.0000 0.2500  plane waves:    7095
 k-point  6 :   0.3333 0.0000 0.2500  plane waves:    7078
 k-point  7 :   0.0000 0.3333 0.2500  plane waves:    7078
 k-point  8 :   0.3333 0.3333 0.2500  plane waves:    7106
 k-point  9 :   0.0000 0.0000 0.4167  plane waves:    7051
 k-point 10 :   0.3333 0.0000 0.4167  plane waves:    7083
 k-point 11 :   0.0000 0.3333 0.4167  plane waves:    7083
 k-point 12 :   0.3333 0.3333 0.4167  plane waves:    7094

 maximum and minimum number of plane-waves per node :      7139     7051

 maximum number of plane-waves:      7139
 maximum index in each direction: 
   IXMAX=   15   IYMAX=   15   IZMAX=    7
   IXMIN=  -15   IYMIN=  -15   IZMIN=   -7

 WARNING: aliasing errors must be expected set NGX to  62 to avoid them
 WARNING: aliasing errors must be expected set NGY to  62 to avoid them
 NGZ is ok and might be reduce to  30
 aliasing errors are usually negligible using standard VASP settings
 and one can safely disregard these warnings

 serial   3D FFT for wavefunctions
 parallel 3D FFT for charge:
    minimum data exchange during FFTs selected (reduces bandwidth)


 total amount of memory used by VASP on root node    98714. kBytes
========================================================================

   base      :      30000. kBytes
   nonl-proj :       7310. kBytes
   fftplans  :       5520. kBytes
   grid      :       9792. kBytes
   one-center:         49. kBytes
   wavefun   :      46043. kBytes

     INWAV:  cpu time    0.0000: real time    0.0000
 Broyden mixing: mesh for mixing (old mesh)
   NGX = 31   NGY = 31   NGZ = 15
  (NGX  = 60   NGY  = 60   NGZ  = 30)
  gives a total of  14415 points

 initial charge density was supplied:
 number of electron      48.0000057 magnetization 
 keeping initial charge density in first step


--------------------------------------------------------------------------------------------------------


 Maximum index for augmentation-charges         1935 (set IRDMAX)


--------------------------------------------------------------------------------------------------------


 First call to EWALD:  gamma=   0.276
 Maximum number of real-space cells 2x 2x 4
 Maximum number of reciprocal cells 3x 3x 2

 FEWALD executed in parallel
    FEWALD:  cpu time    0.0027: real time    0.0026


----------------------------------------- Iteration    1(   1)  ---------------------------------------


    POTLOK:  cpu time    0.0729: real time    0.0730
    SETDIJ:  cpu time    0.0225: real time    0.0225
     EDDAV:  cpu time    7.9267: real time    7.9364
 BZINTS: Fermi energy: 13.479719; 48.000000 electrons
         Band energy: 299.371599;  BLOECHL correction: -0.029067
       DOS:  cpu time    0.0069: real time    0.0069
    --------------------------------------------
      LOOP:  cpu time    8.0297: real time    8.0396

 eigenvalue-minimisations  :   792
 total energy-change (2. order) : 0.6717668E+02  (-0.1685494E+04)
 number of electron      48.0000057 magnetization 
 augmentation part       48.0000057 magnetization 

 Free energy of the ion-electron system (eV)
  ---------------------------------------------------
  alpha Z        PSCENC =        -3.26261944
  Ewald energy   TEWEN  =     -1176.92262222
  -Hartree energ DENC   =        -1.67657138
  -exchange      EXHF   =         0.00000000
  -V(xc)+E(xc)   XCENC  =      -418.02105804
  PAW double counting   =      2267.61102540    -1756.53838808
  entropy T*S    EENTRO =         0.00000000
  eigenvalues    EBANDS =       299.37159929
  atomic energy  EATOM  =       856.61531302
  Solvation  Ediel_sol  =         0.00000000
  ---------------------------------------------------
  free energy    TOTEN  =        67.17667855 eV

  energy without entropy =       67.17667855  energy(sigma->0) =       67.17667855


--------------------------------------------------------------------------------------------------------




 average (electrostatic) potential at core
  the test charge radii are     1.0406
  (the norm of the test charge is              1.0000)
       1 -72.6095       2 -72.6122       3 -72.6080       4 -72.6118       5 -72.6083
       6 -72.6122       7 -72.6096       8 -72.6118       9 -72.6084      10 -72.6122
      11 -72.6078      12 -72.6106      13 -72.6099      14 -72.6122      15 -72.6066
      16 -72.6106



 E-fermi :  13.4797     XC(G=0): -10.2031     alpha+bet :-14.9019


 k-point     1 :       0.0000    0.0000    0.0833
  band No.  band energies     occupation 
      1      -3.0409      2.00000
      2      -0.1998      2.00000
      3       0.0427      2.00000
      4       0.1654      2.00000
      5       0.2948      2.00000
      6       2.4671      2.00000
      7       2.6325      2.00000
      8       3.2519      2.00000
      9       3.4261      2.00000
     10       5.6981      2.00000
     11       7.0551      2.00000
     12       7.9374      2.00000
     13       8.1183      2.00000
     14       8.8957      2.00000
     15       9.2305      2.00000
     16       9.6985      2.00000
     17       9.8696      2.00000
     18      10.4520      2.00000
     19      10.5595      2.00000
     20      10.9627      2.00000
     21      11.3468      2.00000
     22      11.6635      2.00000
     23      12.1943      2.00000
     24      12.7864      2.22455
     25      13.7473      0.00227
     26      13.8758      0.00000
     27      14.2117      0.00000
     28      15.5709      0.00000
     29      16.3193      0.00000
     30      16.6576      0.00000
     31      18.1521      0.00000
     32      19.0332      0.00000
     33      20.0680      0.00000

 k-point     2 :       0.3333    0.0000    0.0833
  band No.  band energies     occupation 
      1      -2.3601      2.00000
      2      -1.4874      2.00000
      3       0.3398      2.00000
      4       0.6753      2.00000
      5       1.2520      2.00000
      6       1.6179      2.00000
      7       2.3765      2.00000
      8       4.6424      2.00000
      9       5.0615      2.00000
     10       5.7503      2.00000
     11       6.3730      2.00000
     12       7.4557      2.00000
     13       7.6261      2.00000
     14       8.0221      2.00000
     15       8.4289      2.00000
     16       9.0532      2.00000
     17       9.2923      2.00000
     18      10.0862      2.00000
     19      10.2520      2.00000
     20      11.3038      2.00000
     21      11.7048      2.00000
     22      12.3787      2.00000
     23      12.7109      2.00000
     24      13.5559      1.04679
     25      13.9125     -0.00879
     26      14.4152      0.00000
     27      14.8409      0.00000
     28      15.3588      0.00000
     29      16.1206      0.00000
     30      16.5499      0.00000
     31      17.8580      0.00000
     32      18.3204      0.00000
     33      20.4052      0.00000

 k-point     3 :       0.0000    0.3333    0.0833
  band No.  band energies     occupation 
      1      -2.5166      2.00000
      2      -1.4883      2.00000
      3       0.2961      2.00000
      4       0.3802      2.00000
      5       1.3643      2.00000
      6       1.6812      2.00000
      7       1.9973      2.00000
      8       4.7419      2.00000
      9       5.0841      2.00000
     10       5.5242      2.00000
     11       6.8049      2.00000
     12       7.7283      2.00000
     13       8.3918      2.00000
     14       8.6619      2.00000
     15       8.9820      2.00000
     16       9.5866      2.00000
     17       9.9698      2.00000
     18      10.0811      2.00000
     19      10.3226      2.00000
     20      11.4721      2.00000
     21      11.9686      2.00000
     22      12.2105      2.00000
     23      12.7825      2.00000
     24      13.4611      1.90337
     25      14.1443     -0.01472
     26      14.3784      0.00000
     27      14.8912      0.00000
     28      15.6334      0.00000
     29      16.2307      0.00000
     30      16.6750      0.00000
     31      17.7795      0.00000
     32      19.2550      0.00000
     33      20.3372      0.00000

 k-point     4 :       0.3333    0.3333    0.0833
  band No.  band energies     occupation 
      1      -1.5505      2.00000
      2      -0.8966      2.00000
      3      -0.0558      2.00000
      4       0.3309      2.00000
      5       2.4342      2.00000
      6       2.7983      2.00000
      7       3.6900      2.00000
      8       4.0692      2.00000
      9       5.1200      2.00000
     10       5.3715      2.00000
     11       6.2407      2.00000
     12       7.0451      2.00000
     13       7.4992      2.00000
     14       8.0634      2.00000
     15       8.6061      2.00000
     16       8.8162      2.00000
     17      10.5073      2.00000
     18      10.8174      2.00000
     19      11.0919      2.00000
     20      11.5661      2.00000
     21      11.9640      2.00000
     22      12.4584      2.00000
     23      12.8071      2.00000
     24      13.4031      1.96743
     25      13.8841     -0.00379
     26      14.1569      0.00000
     27      14.5082      0.00000
     28      15.7264      0.00000
     29      16.0684      0.00000
     30      16.8840      0.00000
     31      17.2131      0.00000
     32      18.5442      0.00000
     33      19.7464      0.00000

 k-point     5 :       0.0000    0.0000    0.2500
  band No.  band energies     occupation 
      1      -2.0885      2.00000
      2       0.3253      2.00000
      3       0.6173      2.00000
      4       0.7760      2.00000
      5       0.9294      2.00000
      6       2.8877      2.00000
      7       3.0229      2.00000
      8       3.2102      2.00000
      9       3.5238      2.00000
     10       3.9239      2.00000
     11       5.8168      2.00000
     12       6.2456      2.00000
     13       7.0244      2.00000
     14       7.9014      2.00000
     15       8.4541      2.00000
     16       8.7526      2.00000
     17       8.8959      2.00000
     18       9.2985      2.00000
     19       9.8032      2.00000
     20      10.1622      2.00000
     21      11.4285      2.00000
     22      12.1036      2.00000
     23      12.3412      2.00000
     24      12.9192      2.00728
     25      13.2959      0.86795
     26      14.0459      0.00000
     27      15.1659      0.00000
     28      15.4819      0.00000
     29      16.7508      0.00000
     30      16.9638      0.00000
     31      17.8143      0.00000
     32      20.0217      0.00000
     33      20.4074      0.00000

 k-point     6 :       0.3333    0.0000    0.2500
  band No.  band energies     occupation 
      1      -1.7208      2.00000
      2      -0.9044      2.00000
      3       0.7552      2.00000
      4       0.9370      2.00000
      5       1.5998      2.00000
      6       2.0158      2.00000
      7       3.2307      2.00000
      8       3.6643      2.00000
      9       4.3168      2.00000
     10       5.1324      2.00000
     11       5.7296      2.00000
     12       6.0119      2.00000
     13       6.9749      2.00000
     14       7.3050      2.00000
     15       7.5816      2.00000
     16       8.4007      2.00000
     17       8.8178      2.00000
     18       9.7032      2.00000
     19      10.0635      2.00000
     20      10.6825      2.00000
     21      11.0937      2.00000
     22      11.8596      2.00000
     23      12.4839      2.00000
     24      12.7175      2.06595
     25      13.5635      0.06665
     26      14.7575      0.00000
     27      15.3886      0.00000
     28      15.8828      0.00000
     29      16.4837      0.00000
     30      17.2498      0.00000
     31      18.0007      0.00000
     32      18.5291      0.00000
     33      21.4410      0.00000

 k-point     7 :       0.0000    0.3333    0.2500
  band No.  band energies     occupation 
      1      -1.5513      2.00000
      2      -0.8273      2.00000
      3       0.8646      2.00000
      4       1.2094      2.00000
      5       1.9966      2.00000
      6       2.3978      2.00000
      7       3.0449      2.00000
      8       3.7623      2.00000
      9       4.6605      2.00000
     10       5.5489      2.00000
     11       5.6885      2.00000
     12       6.3093      2.00000
     13       6.8442      2.00000
     14       7.2713      2.00000
     15       7.9926      2.00000
     16       8.2711      2.00000
     17       8.6808      2.00000
     18       9.1422      2.00000
     19       9.4984      2.00000
     20      10.1875      2.00000
     21      10.5218      2.00000
     22      11.7816      2.00000
     23      12.8162      2.00000
     24      13.4175      1.99050
     25      13.9988     -0.06783
     26      14.6220      0.00000
     27      15.5385      0.00000
     28      16.1669      0.00000
     29      16.6604      0.00000
     30      17.5102      0.00000
     31      18.3340      0.00000
     32      19.3924      0.00000
     33      19.7866      0.00000

 k-point     8 :       0.3333    0.3333    0.2500
  band No.  band energies     occupation 
      1      -1.2257      2.00000
      2      -0.6131      2.00000
      3      -0.2450      2.00000
      4       0.4260      2.00000
      5       2.6573      2.00000
      6       3.1893      2.00000
      7       3.8126      2.00000
      8       3.9316      2.00000
      9       4.5038      2.00000
     10       4.6540      2.00000
     11       5.0675      2.00000
     12       5.5464      2.00000
     13       5.8782      2.00000
     14       6.3511      2.00000
     15       7.2697      2.00000
     16       7.9008      2.00000
     17       8.7626      2.00000
     18       9.3237      2.00000
     19       9.8636      2.00000
     20      10.1649      2.00000
     21      11.3226      2.00000
     22      11.8533      2.00000
     23      12.6618      2.00000
     24      13.1074      2.02039
     25      13.9766     -0.03135
     26      14.1715      0.00000
     27      15.0646      0.00000
     28      15.4566      0.00000
     29      15.7726      0.00000
     30      16.8976      0.00000
     31      17.9590      0.00000
     32      19.0339      0.00000
     33      19.9230      0.00000

 k-point     9 :       0.0000    0.0000    0.4167
  band No.  band energies     occupation 
      1      -0.7791      2.00000
      2       0.7179      2.00000
      3       1.3434      2.00000
      4       1.8000      2.00000
      5       1.8636      2.00000
      6       2.4227      2.00000
      7       3.3141      2.00000
      8       3.7591      2.00000
      9       3.9630      2.00000
     10       4.3422      2.00000
     11       4.6640      2.00000
     12       4.7994      2.00000
     13       5.0537      2.00000
     14       5.9056      2.00000
     15       6.5407      2.00000
     16       6.9858      2.00000
     17       8.3424      2.00000
     18       8.9240      2.00000
     19       9.4685      2.00000
     20      10.0955      2.00000
     21      11.3340      2.00000
     22      11.7040      2.00000
     23      12.3067      2.00000
     24      12.9488      2.00000
     25      13.3542      1.12237
     26      14.0028      0.00000
     27      14.5731      0.00000
     28      15.2277      0.00000
     29      16.0209      0.00000
     30      16.9223      0.00000
     31      17.9088      0.00000
     32      19.1954      0.00000
     33      19.9507      0.00000

 k-point    10 :       0.3333    0.0000    0.4167
  band No.  band energies     occupation 
      1      -0.7647      2.00000
      2       0.6101      2.00000
      3       1.3846      2.00000
      4       1.9688      2.00000
      5       2.2781      2.00000
      6       2.4675      2.00000
      7       3.0320      2.00000
      8       3.4417      2.00000
      9       3.8757      2.00000
     10       4.5361      2.00000
     11       4.6229      2.00000
     12       5.3371      2.00000
     13       5.8729      2.00000
     14       6.3874      2.00000
     15       7.0185      2.00000
     16       7.8914      2.00000
     17       8.9868      2.00000
     18       9.2732      2.00000
     19       9.8620      2.00000
     20      10.4030      2.00000
     21      11.0100      2.00000
     22      11.4642      2.00000
     23      12.2676      2.00000
     24      13.0853      2.00000
     25      13.7919     -0.08166
     26      14.5432      0.00000
     27      15.2828      0.00000
     28      16.0738      0.00000
     29      17.1573      0.00000
     30      17.5926      0.00000
     31      18.5038      0.00000
     32      19.6912      0.00000
     33      21.3084      0.00000

 k-point    11 :       0.0000    0.3333    0.4167
  band No.  band energies     occupation 
      1      -0.7146      2.00000
      2       0.2312      2.00000
      3       1.3220      2.00000
      4       1.7991      2.00000
      5       1.9906      2.00000
      6       2.1457      2.00000
      7       2.8768      2.00000
      8       3.3576      2.00000
      9       3.6834      2.00000
     10       4.1947      2.00000
     11       4.7782      2.00000
     12       4.8577      2.00000
     13       5.4288      2.00000
     14       6.2835      2.00000
     15       7.1696      2.00000
     16       7.8371      2.00000
     17       8.2985      2.00000
     18       9.0391      2.00000
     19       9.9753      2.00000
     20      10.2718      2.00000
     21      10.6060      2.00000
     22      11.1634      2.00000
     23      12.1102      2.00000
     24      12.5134      2.00000
     25      13.5277      0.12159
     26      14.0151      0.00000
     27      15.3816      0.00000
     28      15.9764      0.00000
     29      16.8979      0.00000
     30      18.1008      0.00000
     31      18.6271      0.00000
     32      19.7799      0.00000
     33      21.0410      0.00000

 k-point    12 :       0.3333    0.3333    0.4167
  band No.  band energies     occupation 
      1      -0.2753      2.00000
      2       0.2762      2.00000
      3       0.6910      2.00000
      4       1.4957      2.00000
      5       1.7003      2.00000
      6       2.2780      2.00000
      7       2.9523      2.00000
      8       3.5003      2.00000
      9       4.0402      2.00000
     10       4.4726      2.00000
     11       4.9213      2.00000
     12       5.6975      2.00000
     13       6.1925      2.00000
     14       6.7185      2.00000
     15       7.2821      2.00000
     16       7.7318      2.00000
     17       8.2574      2.00000
     18       8.6997      2.00000
     19       9.3095      2.00000
     20       9.5744      2.00000
     21      10.2167      2.00000
     22      11.0246      2.00000
     23      11.4378      2.00000
     24      11.9820      2.00000
     25      13.6959     -0.01971
     26      15.0318      0.00000
     27      15.6563      0.00000
     28      16.0732      0.00000
     29      16.8256      0.00000
     30      17.5430      0.00000
     31      19.0237      0.00000
     32      19.7108      0.00000
     33      20.5791      0.00000


--------------------------------------------------------------------------------------------------------


 soft charge-density along one line, spin component           1
         0         1         2         3         4         5         6         7         8         9
 total charge-density along one line

 pseudopotential strength for first ion, spin component:           1
  8.443  14.390  -0.000   0.000   0.000  -0.000   0.000   0.000
 14.390  24.525  -0.000   0.000   0.000  -0.000   0.000   0.000
 -0.000  -0.000   1.988   0.000  -0.000   5.731   0.000  -0.000
  0.000   0.000   0.000   1.988  -0.000   0.000   5.731  -0.000
  0.000   0.000  -0.000  -0.000   1.988  -0.000  -0.000   5.731
 -0.000  -0.000   5.731   0.000  -0.000  16.436   0.000  -0.000
  0.000   0.000   0.000   5.731  -0.000   0.000  16.436  -0.000
  0.000   0.000  -0.000  -0.000   5.731  -0.000  -0.000  16.436
 total augmentation occupancy for first ion, spin component:           1
  2.000   0.000   0.000   0.000   0.000   0.000   0.000   0.000
  0.000   0.000   0.000   0.000   0.000   0.000   0.000   0.000
  0.000   0.000   0.333   0.000   0.000   0.000   0.000   0.000
  0.000   0.000   0.000   0.333   0.000   0.000   0.000   0.000
  0.000   0.000   0.000   0.000   0.333   0.000   0.000   0.000
  0.000   0.000   0.000   0.000   0.000   0.000   0.000   0.000
  0.000   0.000   0.000   0.000   0.000   0.000   0.000   0.000
  0.000   0.000   0.000   0.000   0.000   0.000   0.000   0.000


----------------------------------------- Iteration    1(   2)  ---------------------------------------


     EDDAV:  cpu time    8.9817: real time    8.9926
 BZINTS: Fermi energy:  8.443793; 48.000000 electrons
         Band energy: 179.164986;  BLOECHL correction: -0.264201
       DOS:  cpu time    0.0074: real time    0.0075
    --------------------------------------------
      LOOP:  cpu time    8.9947: real time    9.0057

 eigenvalue-minimisations  :   944
 total energy-change (2. order) :-0.1202066E+03  (-0.1111797E+03)
 number of electron      48.0000057 magnetization 
 augmentation part       48.0000057 magnetization 

 Free energy of the ion-electron system (eV)
  ---------------------------------------------------
  alpha Z        PSCENC =        -3.26261944
  Ewald energy   TEWEN  =     -1176.92262222
  -Hartree energ DENC   =        -1.67657138
  -exchange      EXHF   =         0.00000000
  -V(xc)+E(xc)   XCENC  =      -418.02105804
  PAW double counting   =      2267.61102540    -1756.53838808
  entropy T*S    EENTRO =         0.00000000
  eigenvalues    EBANDS =       179.16498561
  atomic energy  EATOM  =       856.61531302
  Solvation  Ediel_sol  =         0.00000000
  ---------------------------------------------------
  free energy    TOTEN  =       -53.02993514 eV

  energy without entropy =      -53.02993514  energy(sigma->0) =      -53.02993514


--------------------------------------------------------------------------------------------------------




 average (electrostatic) potential at core
  the test charge radii are     1.0406
  (the norm of the test charge is              1.0000)
       1 -72.6095       2 -72.6122       3 -72.6080       4 -72.6118       5 -72.6083
       6 -72.6122       7 -72.6096       8 -72.6118       9 -72.6084      10 -72.6122
      11 -72.6078      12 -72.6106      13 -72.6099      14 -72.6122      15 -72.6066
      16 -72.6106



 E-fermi :   8.4438     XC(G=0): -10.2031     alpha+bet :-14.9019


 k-point     1 :       0.0000    0.0000    0.0833
  band No.  band energies     occupation 
      1      -3.0650      2.00000
      2      -0.8029      2.00000
      3      -0.7958      2.00000
      4      -0.7889      2.00000
      5      -0.7730      2.00000
      6       1.4294      2.00000
      7       1.4352      2.00000
      8       1.4460      2.00000
      9       1.4762      2.00000
     10       4.2679      2.00000
     11       5.2052      2.00000
     12       5.3456      2.00000
     13       6.4197      2.00000
     14       6.4370      2.00000
     15       6.5048      2.00000
     16       6.5250      2.00000
     17       6.6358      2.00000
     18       7.0039      2.00000
     19       7.3251      2.00000
     20       7.3861      2.00000
     21       7.5458      2.02081
     22       7.6298      2.04954
     23       7.8467      2.02965
     24       8.5851      0.32442
     25       8.6257      0.02460
     26       8.6775      0.00000
     27       8.7276      0.00000
     28       8.8149      0.00000
     29       9.2575      0.00000
     30       9.5534      0.00000
     31      10.1076      0.00000
     32      10.4900      0.00000
     33      11.0893      0.00000

 k-point     2 :       0.3333    0.0000    0.0833
  band No.  band energies     occupation 
      1      -2.7985      2.00000
      2      -2.0493      2.00000
      3      -0.5435      2.00000
      4      -0.5359      2.00000
      5       0.1985      2.00000
      6       0.2238      2.00000
      7       0.9608      2.00000
      8       3.1378      2.00000
      9       3.1461      2.00000
     10       3.1769      2.00000
     11       4.5068      2.00000
     12       5.2547      2.00000
     13       5.3306      2.00000
     14       5.4098      2.00000
     15       5.4938      2.00000
     16       6.1910      2.00000
     17       6.7465      2.00000
     18       6.7810      2.00000
     19       6.8933      2.00000
     20       7.4379      2.00000
     21       7.5589      2.08830
     22       7.8056      2.08060
     23       7.9703      1.93458
     24       8.3552      1.17120
     25       8.7238     -0.10452
     26       9.3360      0.00000
     27       9.5656      0.00000
     28      10.4109      0.00000
     29      10.6277      0.00000
     30      10.9574      0.00000
     31      11.1810      0.00000
     32      11.5155      0.00000
     33      12.2624      0.00000

 k-point     3 :       0.0000    0.3333    0.0833
  band No.  band energies     occupation 
      1      -2.8065      2.00000
      2      -2.0454      2.00000
      3      -0.5470      2.00000
      4      -0.5399      2.00000
      5       0.2085      2.00000
      6       0.2194      2.00000
      7       0.9443      2.00000
      8       3.1200      2.00000
      9       3.1421      2.00000
     10       3.1681      2.00000
     11       4.5846      2.00000
     12       5.3038      2.00000
     13       5.3654      2.00000
     14       5.4441      2.00000
     15       5.6219      2.00000
     16       6.2245      2.00000
     17       6.8109      2.00000
     18       6.9176      2.00000
     19       7.2415      2.00000
     20       7.4815      2.00000
     21       7.6899      2.08402
     22       7.8397      2.07299
     23       7.9788      1.92894
     24       8.4727      0.56519
     25       8.9112     -0.14529
     26       9.3762      0.00000
     27       9.6986      0.00000
     28      10.2338      0.00000
     29      10.5008      0.00000
     30      10.7451      0.00000
     31      10.9744      0.00000
     32      11.6852      0.00000
     33      11.8996      0.00000

 k-point     4 :       0.3333    0.3333    0.0833
  band No.  band energies     occupation 
      1      -2.5215      2.00000
      2      -1.7926      2.00000
      3      -1.7696      2.00000
      4      -1.0452      2.00000
      5       1.2131      2.00000
      6       1.2198      2.00000
      7       1.9364      2.00000
      8       1.9719      2.00000
      9       3.3659      2.00000
     10       3.3712      2.00000
     11       4.1123      2.00000
     12       4.1402      2.00000
     13       4.8291      2.00000
     14       4.8993      2.00000
     15       5.4972      2.00000
     16       5.5937      2.00000
     17       6.3920      2.00000
     18       7.1493      2.00000
     19       7.4504      2.00000
     20       8.3496      2.00000
     21       8.5375      1.45327
     22       8.6531      1.12468
     23       8.9837      0.31787
     24       9.1448     -0.33631
     25       9.2553     -0.16989
     26       9.3405      0.00000
     27       9.5090      0.00000
     28       9.7545      0.00000
     29      10.1594      0.00000
     30      10.8158      0.00000
     31      11.1873      0.00000
     32      11.4372      0.00000
     33      11.9655      0.00000

 k-point     5 :       0.0000    0.0000    0.2500
  band No.  band energies     occupation 
      1      -2.5508      2.00000
      2      -0.3046      2.00000
      3      -0.2874      2.00000
      4      -0.2802      2.00000
      5      -0.2567      2.00000
      6       1.9063      2.00000
      7       1.9146      2.00000
      8       1.9313      2.00000
      9       1.9541      2.00000
     10       1.9846      2.00000
     11       4.0798      2.00000
     12       4.1381      2.00000
     13       4.1817      2.00000
     14       4.2564      2.00000
     15       5.7312      2.00000
     16       5.8286      2.00000
     17       6.2844      2.00000
     18       6.4059      2.00000
     19       6.4275      2.00000
     20       6.5977      2.00000
     21       7.1494      2.00118
     22       7.2198      2.00939
     23       7.8858      2.01301
     24       8.0592      2.03078
     25       8.1418      1.94933
     26       8.9406     -0.00609
     27       9.4011     -0.00006
     28       9.6952      0.00000
     29      10.0477      0.00000
     30      10.4299      0.00000
     31      10.6801      0.00000
     32      11.5694      0.00000
     33      12.3861      0.00000

 k-point     6 :       0.3333    0.0000    0.2500
  band No.  band energies     occupation 
      1      -2.2970      2.00000
      2      -1.5457      2.00000
      3      -0.0526      2.00000
      4      -0.0211      2.00000
      5       0.6960      2.00000
      6       0.7149      2.00000
      7       1.5389      2.00000
      8       2.1640      2.00000
      9       2.8842      2.00000
     10       3.6220      2.00000
     11       3.6609      2.00000
     12       3.7127      2.00000
     13       4.4243      2.00000
     14       4.5667      2.00000
     15       5.1010      2.00000
     16       5.2251      2.00000
     17       5.7979      2.00000
     18       5.8429      2.00000
     19       6.0019      2.00000
     20       6.2813      2.00000
     21       6.8524      2.00925
     22       7.5270      2.02239
     23       8.0703      1.97128
     24       8.1516      1.95157
     25       8.3874      1.34950
     26       8.7344     -0.02720
     27       9.8962     -0.00442
     28      10.2194      0.00000
     29      10.5371      0.00000
     30      11.0165      0.00000
     31      11.6349      0.00000
     32      11.8725      0.00000
     33      12.2592      0.00000

 k-point     7 :       0.0000    0.3333    0.2500
  band No.  band energies     occupation 
      1      -2.2832      2.00000
      2      -1.5398      2.00000
      3      -0.0385      2.00000
      4      -0.0285      2.00000
      5       0.7179      2.00000
      6       0.7948      2.00000
      7       1.4339      2.00000
      8       2.2007      2.00000
      9       2.9250      2.00000
     10       3.6168      2.00000
     11       3.6552      2.00000
     12       3.7955      2.00000
     13       4.3520      2.00000
     14       4.3927      2.00000
     15       5.1402      2.00000
     16       5.1667      2.00000
     17       5.7837      2.00000
     18       5.8013      2.00000
     19       5.8558      2.00000
     20       6.0373      2.00000
     21       6.7299      2.01060
     22       7.2676      2.02682
     23       8.0694      1.97157
     24       8.2425      1.88340
     25       8.4032      1.27754
     26       9.1528     -0.01392
     27       9.8496     -0.00031
     28      10.3713      0.00000
     29      10.5372      0.00000
     30      10.7987      0.00000
     31      11.3225      0.00000
     32      11.7830      0.00000
     33      12.3651      0.00000

 k-point     8 :       0.3333    0.3333    0.2500
  band No.  band energies     occupation 
      1      -2.0351      2.00000
      2      -1.2963      2.00000
      3      -1.2880      2.00000
      4      -0.5447      2.00000
      5       1.6691      2.00000
      6       1.7210      2.00000
      7       2.4064      2.00000
      8       2.4281      2.00000
      9       2.4727      2.00000
     10       3.1360      2.00000
     11       3.1524      2.00000
     12       3.8333      2.00000
     13       3.8670      2.00000
     14       3.9083      2.00000
     15       4.6378      2.00000
     16       4.6789      2.00000
     17       5.5573      2.00000
     18       6.0565      2.00000
     19       6.2087      2.00000
     20       6.8093      2.00000
     21       6.9539      2.04700
     22       7.5397      2.05274
     23       7.7429      2.02670
     24       8.2411      1.76434
     25       8.4265      1.19683
     26       9.2256     -0.02024
     27       9.3955     -0.00161
     28       9.9522      0.00000
     29      10.3909      0.00000
     30      10.7993      0.00000
     31      11.4166      0.00000
     32      11.9837      0.00000
     33      12.4133      0.00000

 k-point     9 :       0.0000    0.0000    0.4167
  band No.  band energies     occupation 
      1      -1.5366      2.00000
      2      -0.0455      2.00000
      3       0.6832      2.00000
      4       0.6990      2.00000
      5       0.7007      2.00000
      6       0.7681      2.00000
      7       2.1612      2.00000
      8       2.1887      2.00000
      9       2.2078      2.00000
     10       2.2815      2.00000
     11       2.8911      2.00000
     12       2.9033      2.00000
     13       2.9254      2.00000
     14       2.9526      2.00000
     15       4.3606      2.00000
     16       4.3973      2.00000
     17       4.5490      2.00000
     18       4.6661      2.00000
     19       6.7387      2.00000
     20       6.9074      2.00000
     21       8.0268      2.00000
     22       8.0906      2.00000
     23       8.3001      2.00000
     24       8.5536      1.82517
     25       8.8145      0.08825
     26       8.9692     -0.16968
     27       9.2665     -0.02315
     28       9.5724      0.00000
     29       9.8076      0.00000
     30       9.9732      0.00000
     31      10.1878      0.00000
     32      10.3587      0.00000
     33      10.7214      0.00000

 k-point    10 :       0.3333    0.0000    0.4167
  band No.  band energies     occupation 
      1      -1.2887      2.00000
      2      -0.5156      2.00000
      3       0.2246      2.00000
      4       0.9385      2.00000
      5       0.9605      2.00000
      6       1.0320      2.00000
      7       1.7295      2.00000
      8       1.7543      2.00000
      9       2.4108      2.00000
     10       2.4271      2.00000
     11       2.4931      2.00000
     12       3.1520      2.00000
     13       3.2399      2.00000
     14       3.9481      2.00000
     15       4.6019      2.00000
     16       4.6430      2.00000
     17       4.7570      2.00000
     18       6.1060      2.00000
     19       6.1440      2.00000
     20       6.4078      2.00000
     21       6.7775      2.00000
     22       6.8141      2.00000
     23       6.9553      2.00000
     24       7.7131      2.01474
     25       8.2554      1.94596
     26       8.3657      0.79557
     27       8.4228      0.15180
     28       8.7373      0.00000
     29       9.3316      0.00000
     30       9.5108      0.00000
     31      10.0675      0.00000
     32      10.6257      0.00000
     33      12.0897      0.00000

 k-point    11 :       0.0000    0.3333    0.4167
  band No.  band energies     occupation 
      1      -1.2907      2.00000
      2      -0.5359      2.00000
      3       0.2070      2.00000
      4       0.9343      2.00000
      5       0.9564      2.00000
      6       0.9628      2.00000
      7       1.6722      2.00000
      8       1.7025      2.00000
      9       2.4128      2.00000
     10       2.4482      2.00000
     11       2.5318      2.00000
     12       3.1600      2.00000
     13       3.2063      2.00000
     14       3.9428      2.00000
     15       4.6291      2.00000
     16       4.6645      2.00000
     17       4.7502      2.00000
     18       6.0939      2.00000
     19       6.1690      2.00000
     20       6.3327      2.00000
     21       6.8589      2.00000
     22       6.9940      2.00000
     23       7.2172      2.00000
     24       7.7478      2.01401
     25       8.3420      1.87136
     26       8.4633      0.08592
     27       8.5872      0.00213
     28       8.8834      0.00000
     29       9.5144      0.00000
     30      10.1622      0.00000
     31      10.4560      0.00000
     32      11.1969      0.00000
     33      12.1729      0.00000

 k-point    12 :       0.3333    0.3333    0.4167
  band No.  band energies     occupation 
      1      -1.0393      2.00000
      2      -0.3064      2.00000
      3      -0.2847      2.00000
      4       0.4491      2.00000
      5       0.4716      2.00000
      6       1.1874      2.00000
      7       1.2247      2.00000
      8       1.9910      2.00000
      9       2.6531      2.00000
     10       2.6996      2.00000
     11       3.3998      2.00000
     12       3.4191      2.00000
     13       4.1249      2.00000
     14       4.2077      2.00000
     15       4.8496      2.00000
     16       4.8839      2.00000
     17       4.9610      2.00000
     18       5.0439      2.00000
     19       5.5680      2.00000
     20       5.6475      2.00000
     21       6.2838      2.00000
     22       6.4005      2.00000
     23       6.5834      2.00000
     24       7.0715      2.01004
     25       7.5003      2.06350
     26       8.5819     -0.02060
     27       8.9126     -0.04289
     28       9.4114      0.00000
     29      10.4581      0.00000
     30      11.0617      0.00000
     31      11.1450      0.00000
     32      11.6727      0.00000
     33      12.1200      0.00000


--------------------------------------------------------------------------------------------------------


 soft charge-density along one line, spin component           1
         0         1         2         3         4         5         6         7         8         9
 total charge-density along one line

 pseudopotential strength for first ion, spin component:           1
  8.443  14.390  -0.000   0.000   0.000  -0.000   0.000   0.000
 14.390  24.525  -0.000   0.000   0.000  -0.000   0.000   0.000
 -0.000  -0.000   1.988   0.000  -0.000   5.731   0.000  -0.000
  0.000   0.000   0.000   1.988  -0.000   0.000   5.731  -0.000
  0.000   0.000  -0.000  -0.000   1.988  -0.000  -0.000   5.731
 -0.000  -0.000   5.731   0.000  -0.000  16.436   0.000  -0.000
  0.000   0.000   0.000   5.731  -0.000   0.000  16.436  -0.000
  0.000   0.000  -0.000  -0.000   5.731  -0.000  -0.000  16.436
 total augmentation occupancy for first ion, spin component:           1
  2.000   0.000   0.000   0.000   0.000   0.000   0.000   0.000
  0.000   0.000   0.000   0.000   0.000   0.000   0.000   0.000
  0.000   0.000   0.333   0.000   0.000   0.000   0.000   0.000
  0.000   0.000   0.000   0.333   0.000   0.000   0.000   0.000
  0.000   0.000   0.000   0.000   0.333   0.000   0.000   0.000
  0.000   0.000   0.000   0.000   0.000   0.000   0.000   0.000
  0.000   0.000   0.000   0.000   0.000   0.000   0.000   0.000
  0.000   0.000   0.000   0.000   0.000   0.000   0.000   0.000


----------------------------------------- Iteration    1(   3)  ---------------------------------------


     EDDAV:  cpu time    9.5360: real time    9.5492
 BZINTS: Fermi energy:  8.028593; 48.000000 electrons
         Band energy: 172.440900;  BLOECHL correction: -0.384708
       DOS:  cpu time    0.0073: real time    0.0073
    --------------------------------------------
      LOOP:  cpu time    9.5489: real time    9.5622

 eigenvalue-minimisations  :  1022
 total energy-change (2. order) :-0.6724085E+01  (-0.6205871E+01)
 number of electron      48.0000057 magnetization 
 augmentation part       48.0000057 magnetization 

 Free energy of the ion-electron system (eV)
  ---------------------------------------------------
  alpha Z        PSCENC =        -3.26261944
  Ewald energy   TEWEN  =     -1176.92262222
  -Hartree energ DENC   =        -1.67657138
  -exchange      EXHF   =         0.00000000
  -V(xc)+E(xc)   XCENC  =      -418.02105804
  PAW double counting   =      2267.61102540    -1756.53838808
  entropy T*S    EENTRO =         0.00000000
  eigenvalues    EBANDS =       172.44090011
  atomic energy  EATOM  =       856.61531302
  Solvation  Ediel_sol  =         0.00000000
  ---------------------------------------------------
  free energy    TOTEN  =       -59.75402064 eV

  energy without entropy =      -59.75402064  energy(sigma->0) =      -59.75402064


--------------------------------------------------------------------------------------------------------




 average (electrostatic) potential at core
  the test charge radii are     1.0406
  (the norm of the test charge is              1.0000)
       1 -72.6095       2 -72.6122       3 -72.6080       4 -72.6118       5 -72.6083
       6 -72.6122       7 -72.6096       8 -72.6118       9 -72.6084      10 -72.6122
      11 -72.6078      12 -72.6106      13 -72.6099      14 -72.6122      15 -72.6066
      16 -72.6106



 E-fermi :   8.0286     XC(G=0): -10.2031     alpha+bet :-14.9019


 k-point     1 :       0.0000    0.0000    0.0833
  band No.  band energies     occupation 
      1      -3.0655      2.00000
      2      -0.8215      2.00000
      3      -0.8161      2.00000
      4      -0.8153      2.00000
      5      -0.8092      2.00000
      6       1.3970      2.00000
      7       1.3971      2.00000
      8       1.4003      2.00000
      9       1.4029      2.00000
     10       4.2219      2.00000
     11       5.1484      2.00000
     12       5.1510      2.00000
     13       6.3305      2.00000
     14       6.3372      2.00000
     15       6.3392      2.00000
     16       6.3455      2.00000
     17       6.4804      2.00000
     18       6.5029      2.00000
     19       7.2242      2.00000
     20       7.2325      2.00000
     21       7.2355      2.03778
     22       7.2442      2.04839
     23       7.3995      2.04088
     24       8.4688     -0.21454
     25       8.4716     -0.11453
     26       8.4774     -0.01499
     27       8.5141      0.00000
     28       8.5748      0.00000
     29       8.5791      0.00000
     30       8.5895      0.00000
     31       8.6359      0.00000
     32       9.7481      0.00000
     33       9.8448      0.00000

 k-point     2 :       0.3333    0.0000    0.0833
  band No.  band energies     occupation 
      1      -2.8136      2.00000
      2      -2.0611      2.00000
      3      -0.5684      2.00000
      4      -0.5671      2.00000
      5       0.1725      2.00000
      6       0.1739      2.00000
      7       0.9083      2.00000
      8       3.0773      2.00000
      9       3.0948      2.00000
     10       3.0962      2.00000
     11       4.4587      2.00000
     12       5.1674      2.00000
     13       5.2193      2.00000
     14       5.2215      2.00000
     15       5.3793      2.00000
     16       6.0730      2.00000
     17       6.5973      2.00000
     18       6.6009      2.00000
     19       6.7207      2.00000
     20       7.2993      2.00000
     21       7.3062      2.08197
     22       7.3821      2.08581
     23       7.6328      1.85325
     24       8.0899      0.19560
     25       8.3134     -0.05656
     26       8.8580     -0.04494
     27       8.9921      0.00000
     28       9.7907      0.00000
     29       9.8547      0.00000
     30      10.1152      0.00000
     31      10.1843      0.00000
     32      10.2589      0.00000
     33      10.7884      0.00000

 k-point     3 :       0.0000    0.3333    0.0833
  band No.  band energies     occupation 
      1      -2.8137      2.00000
      2      -2.0610      2.00000
      3      -0.5700      2.00000
      4      -0.5655      2.00000
      5       0.1710      2.00000
      6       0.1755      2.00000
      7       0.9081      2.00000
      8       3.0771      2.00000
      9       3.0931      2.00000
     10       3.0977      2.00000
     11       4.4596      2.00000
     12       5.1692      2.00000
     13       5.2186      2.00000
     14       5.2250      2.00000
     15       5.3801      2.00000
     16       6.0734      2.00000
     17       6.6044      2.00000
     18       6.6099      2.00000
     19       6.7237      2.00000
     20       7.2995      2.00000
     21       7.3108      2.08150
     22       7.3932      2.08397
     23       7.6411      1.84560
     24       8.0909      0.19340
     25       8.3191     -0.05834
     26       8.8825     -0.04498
     27       8.9941      0.00000
     28       9.7856      0.00000
     29       9.8497      0.00000
     30      10.1333      0.00000
     31      10.1894      0.00000
     32      10.3082      0.00000
     33      10.7374      0.00000

 k-point     4 :       0.3333    0.3333    0.0833
  band No.  band energies     occupation 
      1      -2.5619      2.00000
      2      -1.8137      2.00000
      3      -1.8080      2.00000
      4      -1.0637      2.00000
      5       1.1502      2.00000
      6       1.1559      2.00000
      7       1.8842      2.00000
      8       1.8857      2.00000
      9       3.3168      2.00000
     10       3.3181      2.00000
     11       4.0334      2.00000
     12       4.0392      2.00000
     13       4.6962      2.00000
     14       4.7648      2.00000
     15       5.3961      2.00000
     16       5.4057      2.00000
     17       6.1334      2.00000
     18       6.8844      2.00000
     19       6.9052      2.00000
     20       7.8736      2.00000
     21       8.2183      1.24504
     22       8.2407      1.08080
     23       8.6367      0.09069
     24       8.6476     -0.17081
     25       8.9449     -0.11497
     26       8.9600     -0.01586
     27       9.0480      0.00000
     28       9.2109      0.00000
     29       9.2599      0.00000
     30       9.3824      0.00000
     31       9.9429      0.00000
     32      10.2890      0.00000
     33      10.9147      0.00000

 k-point     5 :       0.0000    0.0000    0.2500
  band No.  band energies     occupation 
      1      -2.5623      2.00000
      2      -0.3261      2.00000
      3      -0.3210      2.00000
      4      -0.3197      2.00000
      5      -0.3140      2.00000
      6       1.8795      2.00000
      7       1.8848      2.00000
      8       1.8852      2.00000
      9       1.8880      2.00000
     10       1.8908      2.00000
     11       4.0456      2.00000
     12       4.0505      2.00000
     13       4.0517      2.00000
     14       4.0579      2.00000
     15       5.6119      2.00000
     16       5.6164      2.00000
     17       6.2116      2.00000
     18       6.2127      2.00000
     19       6.2189      2.00000
     20       6.2227      2.00000
     21       6.9614      2.00413
     22       6.9656      2.01035
     23       7.6916      1.97273
     24       7.6946      1.98578
     25       7.7025      1.86668
     26       7.7129      1.47119
     27       9.1731      0.00000
     28       9.1751      0.00000
     29       9.1821      0.00000
     30       9.3294      0.00000
     31       9.7869      0.00000
     32       9.8679      0.00000
     33      10.9488      0.00000

 k-point     6 :       0.3333    0.0000    0.2500
  band No.  band energies     occupation 
      1      -2.3114      2.00000
      2      -1.5615      2.00000
      3      -0.0740      2.00000
      4      -0.0725      2.00000
      5       0.6644      2.00000
      6       0.6659      2.00000
      7       1.3981      2.00000
      8       2.1230      2.00000
      9       2.8492      2.00000
     10       3.5579      2.00000
     11       3.5732      2.00000
     12       3.5733      2.00000
     13       4.2852      2.00000
     14       4.2873      2.00000
     15       5.0285      2.00000
     16       5.0307      2.00000
     17       5.7073      2.00000
     18       5.7257      2.00000
     19       5.7298      2.00000
     20       5.8438      2.00000
     21       6.5382      2.02072
     22       7.1469      2.02601
     23       7.8661      1.88316
     24       7.8723      1.80514
     25       7.9428      1.32161
     26       8.0121      0.52223
     27       9.3536      0.00000
     28       9.4867      0.00000
     29       9.9522      0.00000
     30      10.0140      0.00000
     31      10.3822      0.00000
     32      10.7414      0.00000
     33      11.0042      0.00000

 k-point     7 :       0.0000    0.3333    0.2500
  band No.  band energies     occupation 
      1      -2.3113      2.00000
      2      -1.5614      2.00000
      3      -0.0755      2.00000
      4      -0.0710      2.00000
      5       0.6633      2.00000
      6       0.6681      2.00000
      7       1.3971      2.00000
      8       2.1234      2.00000
      9       2.8495      2.00000
     10       3.5576      2.00000
     11       3.5716      2.00000
     12       3.5758      2.00000
     13       4.2826      2.00000
     14       4.2872      2.00000
     15       5.0273      2.00000
     16       5.0320      2.00000
     17       5.7045      2.00000
     18       5.7225      2.00000
     19       5.7272      2.00000
     20       5.8417      2.00000
     21       6.5381      2.02079
     22       7.1355      2.02646
     23       7.8678      1.88213
     24       7.8724      1.80434
     25       7.9485      1.29493
     26       8.0184      0.49714
     27       9.3495      0.00000
     28       9.4312      0.00000
     29       9.9546      0.00000
     30      10.0273      0.00000
     31      10.1319      0.00000
     32      10.8000      0.00000
     33      11.1276      0.00000

 k-point     8 :       0.3333    0.3333    0.2500
  band No.  band energies     occupation 
      1      -2.0608      2.00000
      2      -1.3152      2.00000
      3      -1.3095      2.00000
      4      -0.5675      2.00000
      5       1.6383      2.00000
      6       1.6442      2.00000
      7       2.3654      2.00000
      8       2.3702      2.00000
      9       2.3714      2.00000
     10       3.0874      2.00000
     11       3.0932      2.00000
     12       3.7960      2.00000
     13       3.7978      2.00000
     14       3.8071      2.00000
     15       4.5057      2.00000
     16       4.5112      2.00000
     17       5.2724      2.00000
     18       5.9726      2.00000
     19       5.9792      2.00000
     20       6.6830      2.00000
     21       6.6913      2.05449
     22       7.3690      2.04323
     23       7.3780      2.01791
     24       8.0522      1.12195
     25       8.0660      0.70549
     26       8.7705     -0.18220
     27       8.7961      0.00000
     28       9.4652      0.00000
     29       9.5680      0.00000
     30       9.7499      0.00000
     31      10.0702      0.00000
     32      10.4926      0.00000
     33      11.0228      0.00000

 k-point     9 :       0.0000    0.0000    0.4167
  band No.  band energies     occupation 
      1      -1.5614      2.00000
      2      -0.0739      2.00000
      3       0.6591      2.00000
      4       0.6643      2.00000
      5       0.6653      2.00000
      6       0.6715      2.00000
      7       2.1234      2.00000
      8       2.1289      2.00000
      9       2.1300      2.00000
     10       2.1359      2.00000
     11       2.8519      2.00000
     12       2.8521      2.00000
     13       2.8552      2.00000
     14       2.8580      2.00000
     15       4.3151      2.00000
     16       4.3153      2.00000
     17       4.3184      2.00000
     18       4.3214      2.00000
     19       6.5349      2.00000
     20       6.5375      2.00000
     21       7.8589      2.00000
     22       7.8612      2.00000
     23       7.9271      2.00000
     24       7.9316      1.99792
     25       8.6153     -0.16753
     26       8.6234     -0.27637
     27       8.6263      0.00000
     28       8.6358      0.00000
     29       9.5879      0.00000
     30       9.6150      0.00000
     31      10.0189      0.00000
     32      10.0502      0.00000
     33      10.1016      0.00000

 k-point    10 :       0.3333    0.0000    0.4167
  band No.  band energies     occupation 
      1      -1.3122      2.00000
      2      -0.5672      2.00000
      3       0.1728      2.00000
      4       0.9093      2.00000
      5       0.9098      2.00000
      6       0.9122      2.00000
      7       1.6432      2.00000
      8       1.6452      2.00000
      9       2.3698      2.00000
     10       2.3717      2.00000
     11       2.3735      2.00000
     12       3.0938      2.00000
     13       3.0958      2.00000
     14       3.8168      2.00000
     15       4.5133      2.00000
     16       4.5556      2.00000
     17       4.5567      2.00000
     18       5.9340      2.00000
     19       5.9831      2.00000
     20       5.9833      2.00000
     21       6.6657      2.00000
     22       6.6678      2.00000
     23       6.7669      2.00000
     24       7.4672      2.01065
     25       8.0794      1.09307
     26       8.0876      0.71103
     27       8.1569      0.00000
     28       8.2281      0.00000
     29       8.8634      0.00000
     30       8.9614      0.00000
     31       9.5393      0.00000
     32      10.3241      0.00000
     33      10.5550      0.00000

 k-point    11 :       0.0000    0.3333    0.4167
  band No.  band energies     occupation 
      1      -1.3123      2.00000
      2      -0.5675      2.00000
      3       0.1726      2.00000
      4       0.9074      2.00000
      5       0.9099      2.00000
      6       0.9130      2.00000
      7       1.6414      2.00000
      8       1.6461      2.00000
      9       2.3691      2.00000
     10       2.3712      2.00000
     11       2.3756      2.00000
     12       3.0924      2.00000
     13       3.0969      2.00000
     14       3.8170      2.00000
     15       4.5137      2.00000
     16       4.5539      2.00000
     17       4.5597      2.00000
     18       5.9283      2.00000
     19       5.9847      2.00000
     20       5.9897      2.00000
     21       6.6667      2.00000
     22       6.6811      2.00000
     23       6.7704      2.00000
     24       7.4662      2.01066
     25       8.0781      1.09483
     26       8.0874      0.70597
     27       8.1572      0.00000
     28       8.2280      0.00000
     29       8.8567      0.00000
     30       8.9811      0.00000
     31       9.5324      0.00000
     32      10.3457      0.00000
     33      11.1036      0.00000

 k-point    12 :       0.3333    0.3333    0.4167
  band No.  band energies     occupation 
      1      -1.0637      2.00000
      2      -0.3231      2.00000
      3      -0.3173      2.00000
      4       0.4181      2.00000
      5       0.4204      2.00000
      6       1.1519      2.00000
      7       1.1574      2.00000
      8       1.8872      2.00000
      9       2.6097      2.00000
     10       2.6154      2.00000
     11       3.3325      2.00000
     12       3.3338      2.00000
     13       4.0486      2.00000
     14       4.0551      2.00000
     15       4.7458      2.00000
     16       4.7475      2.00000
     17       4.7955      2.00000
     18       4.7974      2.00000
     19       5.4855      2.00000
     20       5.4921      2.00000
     21       6.1962      2.00000
     22       6.2005      2.00000
     23       6.2198      2.00000
     24       6.9009      2.05038
     25       6.9061      2.39518
     26       7.6412      2.04313
     27       8.3143      0.00000
     28       8.3235      0.00000
     29       9.7429      0.00000
     30       9.8278      0.00000
     31      10.4918      0.00000
     32      10.6728      0.00000
     33      10.8946      0.00000


--------------------------------------------------------------------------------------------------------


 soft charge-density along one line, spin component           1
         0         1         2         3         4         5         6         7         8         9
 total charge-density along one line

 pseudopotential strength for first ion, spin component:           1
  8.443  14.390  -0.000   0.000   0.000  -0.000   0.000   0.000
 14.390  24.525  -0.000   0.000   0.000  -0.000   0.000   0.000
 -0.000  -0.000   1.988   0.000  -0.000   5.731   0.000  -0.000
  0.000   0.000   0.000   1.988  -0.000   0.000   5.731  -0.000
  0.000   0.000  -0.000  -0.000   1.988  -0.000  -0.000   5.731
 -0.000  -0.000   5.731   0.000  -0.000  16.436   0.000  -0.000
  0.000   0.000   0.000   5.731  -0.000   0.000  16.436  -0.000
  0.000   0.000  -0.000  -0.000   5.731  -0.000  -0.000  16.436
 total augmentation occupancy for first ion, spin component:           1
  2.000   0.000   0.000   0.000   0.000   0.000   0.000   0.000
[...]
      3      -0.0741      2.00000
      4      -0.0734      2.00000
      5       0.6643      2.00000
      6       0.6650      2.00000
      7       1.3967      2.00000
      8       2.1225      2.00000
      9       2.8487      2.00000
     10       3.5567      2.00000
     11       3.5718      2.00000
     12       3.5723      2.00000
     13       4.2836      2.00000
     14       4.2842      2.00000
     15       5.0275      2.00000
     16       5.0282      2.00000
     17       5.7029      2.00000
     18       5.7234      2.00000
     19       5.7239      2.00000
     20       5.8400      2.00000
     21       6.5332      2.02120
     22       7.1328      2.02545
     23       7.8621      1.87972
     24       7.8628      1.79763
     25       7.9343      1.32465
     26       8.0002      0.53641
     27       9.3142      0.00000
     28       9.4246      0.00000
     29       9.9387      0.00000
     30       9.9391      0.00000
     31      10.0123      0.00000
     32      10.6980      0.00000
     33      10.7558      0.00000

 k-point     7 :       0.0000    0.3333    0.2500
  band No.  band energies     occupation 
      1      -2.3116      2.00000
      2      -1.5617      2.00000
      3      -0.0759      2.00000
      4      -0.0715      2.00000
      5       0.6624      2.00000
      6       0.6669      2.00000
      7       1.3967      2.00000
      8       2.1225      2.00000
      9       2.8487      2.00000
     10       3.5568      2.00000
     11       3.5698      2.00000
     12       3.5743      2.00000
     13       4.2816      2.00000
     14       4.2862      2.00000
     15       5.0256      2.00000
     16       5.0302      2.00000
     17       5.7028      2.00000
     18       5.7213      2.00000
     19       5.7261      2.00000
     20       5.8400      2.00000
     21       6.5333      2.02124
     22       7.1328      2.02545
     23       7.8600      1.88087
     24       7.8649      1.79319
     25       7.9342      1.32682
     26       8.0002      0.53569
     27       9.3141      0.00000
     28       9.4247      0.00000
     29       9.9364      0.00000
     30       9.9416      0.00000
     31      10.0110      0.00000
     32      10.7004      0.00000
     33      10.7806      0.00000

 k-point     8 :       0.3333    0.3333    0.2500
  band No.  band energies     occupation 
      1      -2.0612      2.00000
      2      -1.3154      2.00000
      3      -1.3097      2.00000
      4      -0.5678      2.00000
      5       1.6377      2.00000
      6       1.6435      2.00000
      7       2.3645      2.00000
      8       2.3693      2.00000
      9       2.3706      2.00000
     10       3.0868      2.00000
     11       3.0926      2.00000
     12       3.7953      2.00000
     13       3.7966      2.00000
     14       3.8064      2.00000
     15       4.5039      2.00000
     16       4.5096      2.00000
     17       5.2697      2.00000
     18       5.9712      2.00000
     19       5.9772      2.00000
     20       6.6807      2.00000
     21       6.6822      2.05477
     22       7.3644      2.04359
     23       7.3667      2.01831
     24       8.0458      1.10669
     25       8.0476      0.74697
     26       8.7642     -0.19095
     27       8.7702      0.00000
     28       9.4325      0.00000
     29       9.5007      0.00000
     30       9.7316      0.00000
     31       9.7325      0.00000
     32      10.4236      0.00000
     33      10.4255      0.00000

 k-point     9 :       0.0000    0.0000    0.4167
  band No.  band energies     occupation 
      1      -1.5617      2.00000
      2      -0.0743      2.00000
      3       0.6582      2.00000
      4       0.6646      2.00000
      5       0.6648      2.00000
      6       0.6705      2.00000
      7       2.1224      2.00000
      8       2.1289      2.00000
      9       2.1291      2.00000
     10       2.1348      2.00000
     11       2.8505      2.00000
     12       2.8524      2.00000
     13       2.8556      2.00000
     14       2.8562      2.00000
     15       4.3135      2.00000
     16       4.3154      2.00000
     17       4.3186      2.00000
     18       4.3193      2.00000
     19       6.5332      2.00000
     20       6.5333      2.00000
     21       7.8517      2.00000
     22       7.8518      2.00000
     23       7.9224      2.00000
     24       7.9225      1.99741
     25       8.6127     -0.17197
     26       8.6175     -0.28097
     27       8.6181      0.00000
     28       8.6230      0.00000
     29       9.5745      0.00000
     30       9.5746      0.00000
     31      10.0075      0.00000
     32      10.0170      0.00000
     33      10.0454      0.00000

 k-point    10 :       0.3333    0.0000    0.4167
  band No.  band energies     occupation 
      1      -1.3126      2.00000
      2      -0.5679      2.00000
      3       0.1722      2.00000
      4       0.9078      2.00000
      5       0.9102      2.00000
      6       0.9109      2.00000
      7       1.6429      2.00000
      8       1.6435      2.00000
      9       2.3688      2.00000
     10       2.3718      2.00000
     11       2.3721      2.00000
     12       3.0934      2.00000
     13       3.0941      2.00000
     14       3.8153      2.00000
     15       4.5121      2.00000
     16       4.5547      2.00000
     17       4.5553      2.00000
     18       5.9243      2.00000
     19       5.9807      2.00000
     20       5.9813      2.00000
     21       6.6646      2.00000
     22       6.6651      2.00000
     23       6.7646      2.00000
     24       7.4590      2.01206
     25       8.0775      1.06091
     26       8.0781      0.71529
     27       8.1543      0.00000
     28       8.2258      0.00000
     29       8.8499      0.00000
     30       8.9496      0.00000
     31       9.5248      0.00000
     32      10.2450      0.00000
     33      10.3598      0.00000

 k-point    11 :       0.0000    0.3333    0.4167
  band No.  band energies     occupation 
      1      -1.3126      2.00000
      2      -0.5679      2.00000
      3       0.1722      2.00000
      4       0.9070      2.00000
      5       0.9094      2.00000
      6       0.9125      2.00000
      7       1.6410      2.00000
      8       1.6454      2.00000
      9       2.3683      2.00000
     10       2.3704      2.00000
     11       2.3740      2.00000
     12       3.0915      2.00000
     13       3.0960      2.00000
     14       3.8153      2.00000
     15       4.5121      2.00000
     16       4.5527      2.00000
     17       4.5573      2.00000
     18       5.9243      2.00000
     19       5.9787      2.00000
     20       5.9834      2.00000
     21       6.6625      2.00000
     22       6.6673      2.00000
     23       6.7646      2.00000
     24       7.4590      2.01220
     25       8.0753      1.06944
     26       8.0803      0.70449
     27       8.1542      0.00000
     28       8.2258      0.00000
     29       8.8499      0.00000
     30       8.9496      0.00000
     31       9.5247      0.00000
     32      10.2581      0.00000
     33      10.4011      0.00000

 k-point    12 :       0.3333    0.3333    0.4167
  band No.  band energies     occupation 
      1      -1.0639      2.00000
      2      -0.3234      2.00000
      3      -0.3177      2.00000
      4       0.4176      2.00000
      5       0.4199      2.00000
      6       1.1512      2.00000
      7       1.1569      2.00000
      8       1.8860      2.00000
      9       2.6090      2.00000
     10       2.6147      2.00000
     11       3.3316      2.00000
     12       3.3329      2.00000
     13       4.0472      2.00000
     14       4.0530      2.00000
     15       4.7439      2.00000
     16       4.7451      2.00000
     17       4.7935      2.00000
     18       4.7948      2.00000
     19       5.4838      2.00000
     20       5.4897      2.00000
     21       6.1935      2.00000
     22       6.1949      2.00000
     23       6.2158      2.00000
     24       6.8966      2.05206
     25       6.9025      2.39155
     26       7.6345      2.03276
     27       8.3080      0.00000
     28       8.3103      0.00000
     29       9.7123      0.00000
     30       9.7146      0.00000
     31      10.3810      0.00000
     32      10.6180      0.00000
     33      10.6187      0.00000


--------------------------------------------------------------------------------------------------------


 soft charge-density along one line, spin component           1
         0         1         2         3         4         5         6         7         8         9
 total charge-density along one line

 pseudopotential strength for first ion, spin component:           1
  8.443  14.390   0.000   0.000   0.000   0.000   0.000   0.000
 14.390  24.525   0.000   0.000   0.000   0.000   0.000   0.000
  0.000   0.000   1.988   0.000   0.000   5.731   0.000   0.000
  0.000   0.000   0.000   1.988  -0.000   0.000   5.731  -0.000
  0.000   0.000   0.000  -0.000   1.988   0.000  -0.000   5.731
  0.000   0.000   5.731   0.000   0.000  16.436   0.000   0.000
  0.000   0.000   0.000   5.731  -0.000   0.000  16.436  -0.000
  0.000   0.000   0.000  -0.000   5.731   0.000  -0.000  16.436
 total augmentation occupancy for first ion, spin component:           1
  3.349  -0.824   0.000   0.000  -0.009   0.000   0.000   0.001
 -0.824   0.270   0.000   0.000   0.003   0.000   0.000  -0.000
  0.000   0.000   1.104   0.000   0.000  -0.071   0.000   0.000
  0.000   0.000   0.000   1.107   0.000   0.000  -0.071   0.000
 -0.009   0.003   0.000   0.000   1.104   0.000   0.000  -0.071
  0.000   0.000  -0.071   0.000   0.000   0.005   0.000   0.000
  0.000   0.000   0.000  -0.071   0.000   0.000   0.005   0.000
  0.001  -0.000   0.000   0.000  -0.071   0.000   0.000   0.005


------------------------ aborting loop because EDIFF is reached ----------------------------------------





 total charge     

# of ion     s       p       d       tot
----------------------------------------
  1        0.428   0.340   0.000   0.768
  2        0.427   0.339   0.000   0.767
  3        0.428   0.340   0.000   0.767
  4        0.427   0.339   0.000   0.767
  5        0.428   0.340   0.000   0.768
  6        0.427   0.340   0.000   0.767
  7        0.428   0.340   0.000   0.768
  8        0.427   0.339   0.000   0.767
  9        0.428   0.340   0.000   0.767
 10        0.427   0.340   0.000   0.767
 11        0.428   0.340   0.000   0.768
 12        0.427   0.340   0.000   0.767
 13        0.428   0.340   0.000   0.768
 14        0.427   0.339   0.000   0.767
 15        0.428   0.340   0.000   0.768
 16        0.427   0.340   0.000   0.767
------------------------------------------------
tot        6.841   5.435   0.000  12.277

    CHARGE:  cpu time    0.5243: real time    0.5249
    FORLOC:  cpu time    0.0133: real time    0.0133
    FORNL :  cpu time    5.6325: real time    5.6381
    STRESS:  cpu time    8.2062: real time    8.2154
    FORCOR:  cpu time    0.0834: real time    0.0835
    FORHAR:  cpu time    0.0295: real time    0.0295
    MIXING:  cpu time    0.0023: real time    0.0023
    OFIELD:  cpu time    0.0000: real time    0.0000

  FORCE on cell =-STRESS in cart. coord.  units (eV):
  Direction    XX          YY          ZZ          XY          YZ          ZX
  --------------------------------------------------------------------------------------
  Alpha Z    -3.26262    -3.26262    -3.26262
  Ewald    -392.31095  -392.30756  -392.30705    -0.00000    -0.00000    -0.00000
  Hartree     0.55497     0.55535     0.56540    -0.00000    -0.00000    -0.00000
  E(xc)    -137.05442  -137.05660  -137.03513     0.00000    -0.00000    -0.00000
  Local       5.73156     5.70608     5.94347     0.00000     0.00000     0.00000
  n-local   302.20197   302.21304   301.95513    -0.10230     0.45157     0.45228
  augment   -16.45442   -16.45624   -16.48465     0.00000     0.00000     0.00000
  Kinetic   239.97876   240.02868   241.58005    -0.73358    -4.83018    -4.83993
  Fock        0.00000     0.00000     0.00000     0.00000     0.00000     0.00000
  -------------------------------------------------------------------------------------
  Total      -0.61515    -0.57986     0.95460     0.00000     0.00000     0.00000
  in kB      -3.73967    -3.52513     5.80330     0.00000     0.00000     0.00000
  external pressure =       -0.49 kB  Pullay stress =        0.00 kB


 VOLUME and BASIS-vectors are now :
 -----------------------------------------------------------------------------
  energy-cutoff  :      520.00
  volume of cell :      263.55
      direct lattice vectors                 reciprocal lattice vectors
     8.077860000  0.000000000  0.000000000     0.123795164  0.000000000  0.000000000
     0.000000000  8.077860000  0.000000000     0.000000000  0.123795164  0.000000000
     0.000000000  0.000000000  4.038930000     0.000000000  0.000000000  0.247590327

  length of vectors
     8.077860000  8.077860000  4.038930000     0.123795164  0.123795164  0.247590327


 FORCES acting on ions
    electron-ion (+dipol)            ewald-force                    non-local-force                 convergence-correction
 -----------------------------------------------------------------------------------------------
   -.432E+00 0.158E-14 0.200E-05   0.346E+00 -.355E-14 0.199E-14   0.126E+00 0.000E+00 0.000E+00   -.133E-03 0.534E-13 -.228E-13
   -.975E-01 0.957E-02 -.275E-14   0.101E+00 -.392E-03 0.119E-14   -.456E-02 -.187E-02 0.000E+00   -.145E-03 -.378E-02 0.148E-13
   0.127E+00 -.139E-14 0.304E-14   -.815E-01 -.444E-14 0.137E-14   -.403E-01 0.000E+00 0.000E+00   -.320E-02 0.311E-13 0.120E-13
   0.506E-01 0.807E-01 -.785E-14   -.421E-01 -.836E-01 -.394E-16   -.112E-01 -.759E-02 0.000E+00   0.118E-03 -.353E-03 -.678E-14
   -.692E-01 -.236E-14 0.258E-15   0.377E-01 0.355E-14 0.143E-14   0.188E-01 0.000E+00 0.000E+00   -.143E-03 -.484E-13 0.409E-14
   -.975E-01 -.957E-02 -.215E-14   0.101E+00 0.392E-03 -.980E-16   -.456E-02 0.187E-02 0.000E+00   -.145E-03 0.378E-02 -.124E-13
   0.115E-01 -.971E-14 -.155E-13   -.272E-02 0.888E-15 0.171E-16   -.805E-02 0.000E+00 0.000E+00   0.358E-02 -.292E-13 -.108E-14
   0.506E-01 -.807E-01 -.207E-13   -.421E-01 0.836E-01 -.133E-14   -.112E-01 0.759E-02 0.000E+00   0.118E-03 0.353E-03 0.308E-14
   0.785E-01 0.586E-13 -.237E-13   -.105E+00 -.711E-14 0.151E-14   0.103E-01 0.000E+00 0.000E+00   -.770E-03 0.126E-13 -.269E-14
   0.578E-01 -.904E-02 -.190E-14   -.566E-01 0.117E-03 0.116E-15   -.374E-02 0.149E-02 0.000E+00   -.127E-03 0.357E-02 0.141E-14
   0.109E+00 0.838E-14 -.935E-13   -.810E-01 -.355E-14 0.153E-14   -.377E-01 0.000E+00 0.000E+00   0.418E-02 0.259E-13 0.131E-13
   0.502E-01 -.818E-01 0.237E-12   -.417E-01 0.842E-01 -.115E-14   -.112E-01 0.799E-02 0.000E+00   0.139E-03 0.138E-03 -.685E-14
   0.222E-01 0.126E-13 -.217E-13   -.313E-01 0.355E-14 0.260E-15   0.563E-02 0.000E+00 0.000E+00   0.295E-03 -.127E-13 -.471E-16
   0.578E-01 0.904E-02 0.839E-14   -.566E-01 -.117E-03 -.117E-14   -.374E-02 -.149E-02 0.000E+00   -.127E-03 -.357E-02 0.696E-15
   0.310E-01 -.134E-12 0.916E-14   -.246E-02 0.000E+00 -.121E-14   -.127E-01 0.000E+00 0.000E+00   -.373E-02 -.247E-13 -.499E-15
   0.502E-01 0.818E-01 -.236E-12   -.417E-01 -.842E-01 -.244E-14   -.112E-01 -.799E-02 0.000E+00   0.139E-03 -.138E-03 -.181E-17
 -----------------------------------------------------------------------------------------------
   -.540E-03 -.844E-13 0.200E-05   0.101E-13 -.436E-14 0.196E-14   0.776E-03 0.000E+00 0.000E+00   0.501E-04 -.139E-15 -.402E-14


 POSITION                                       TOTAL-FORCE (eV/Angst)
 -----------------------------------------------------------------------------------
      8.06786      0.00000      0.00000         0.039899      0.000000      0.000000
      0.00000      2.01946      2.01946        -0.001526      0.003533      0.000000
      2.01946      0.00000      2.01946         0.001617      0.000000      0.000000
      2.01946      2.01946      0.00000        -0.002668     -0.010814      0.000000
      0.00000      4.03893      0.00000        -0.012861      0.000000      0.000000
      0.00000      6.05839      2.01946        -0.001526     -0.003533      0.000000
      2.01946      4.03893      2.01946         0.004294      0.000000      0.000000
      2.01946      6.05839      0.00000        -0.002668      0.010814      0.000000
      4.03893      0.00000      0.00000        -0.017174      0.000000      0.000000
      4.03893      2.01946      2.01946        -0.002705     -0.003869      0.000000
      6.05839      0.00000      2.01946        -0.005898      0.000000      0.000000
      6.05839      2.01946      0.00000        -0.002530      0.010559      0.000000
      4.03893      4.03893      0.00000        -0.003103      0.000000      0.000000
      4.03893      6.05839      2.01946        -0.002705      0.003869      0.000000
      6.05839      4.03893      2.01946         0.012086      0.000000      0.000000
      6.05839      6.05839      0.00000        -0.002530     -0.010559      0.000000
 -----------------------------------------------------------------------------------
    total drift:                                0.000286     -0.000000      0.000002


--------------------------------------------------------------------------------------------------------



  FREE ENERGIE OF THE ION-ELECTRON SYSTEM (eV)
  ---------------------------------------------------
  free  energy   TOTEN  =       -59.88629196 eV

  energy  without entropy=      -59.88629196  energy(sigma->0) =      -59.88629196



--------------------------------------------------------------------------------------------------------


    POTLOK:  cpu time    0.0975: real time    0.0976


--------------------------------------------------------------------------------------------------------


     LOOP+:  cpu time   66.3503: real time   66.4332
    4ORBIT:  cpu time    0.0000: real time    0.0000



 total charge     

# of ion     s       p       d       tot
----------------------------------------
  1        0.428   0.340   0.000   0.768
  2        0.427   0.339   0.000   0.767
  3        0.428   0.340   0.000   0.767
  4        0.427   0.339   0.000   0.767
  5        0.428   0.340   0.000   0.768
  6        0.427   0.340   0.000   0.767
  7        0.428   0.340   0.000   0.768
  8        0.427   0.339   0.000   0.767
  9        0.428   0.340   0.000   0.767
 10        0.427   0.340   0.000   0.767
 11        0.428   0.340   0.000   0.768
 12        0.427   0.340   0.000   0.767
 13        0.428   0.340   0.000   0.768
 14        0.427   0.339   0.000   0.767
 15        0.428   0.340   0.000   0.768
 16        0.427   0.340   0.000   0.767
------------------------------------------------
tot        6.841   5.435   0.000  12.277

 BZINTS: Fermi energy:  8.018961; 48.000000 electrons
         Band energy: 172.307887;  BLOECHL correction: -0.385879

 total amount of memory used by VASP on root node    98714. kBytes
========================================================================

   base      :      30000. kBytes
   nonl-proj :       7310. kBytes
   fftplans  :       5520. kBytes
   grid      :       9792. kBytes
   one-center:         49. kBytes
   wavefun   :      46043. kBytes

  
  
 General timing and accounting informations for this job:
 ========================================================
  
                  Total CPU time used (sec):       68.530
                            User time (sec):       68.454
                          System time (sec):        0.076
                         Elapsed time (sec):       68.623
  
                   Maximum memory used (kb):      120876.
                   Average memory used (kb):           0.
  
                          Minor page faults:        25813
                          Major page faults:            0
                 Voluntary context switches:           38
