<?xml version="1.0" encoding="ISO-8859-1"?>
<modeling>
 <generator>
  <i name="program" type="string">vasp </i>
  <i name="version" type="string">5.4.1  </i>
  <i name="subversion" type="string">24Jun15 (build Mar  6 2017 20:45:23) complex                          parallel </i>
  <i name="platform" type="string">IFC91_ompi </i>
  <i name="date" type="string">2017 05 31 </i>
  <i name="time" type="string">14:52:21 </i>
 </generator>
 <incar>
  <i type="string" name="PREC">high</i>
  <i type="string" name="ALGO"> Fast</i>
  <i type="int" name="ISPIN">     1</i>
  <i type="int" name="ICHARG">     1</i>
  <i type="int" name="NELM">   100</i>
  <i name="EDIFF">      0.00020000</i>
  <i type="int" name="NSW">     0</i>
  <i type="int" name="ISIF">     3</i>
  <i name="ENCUT">    520.00000000</i>
  <i type="int" name="ISMEAR">    -5</i>
  <i name="SIGMA">      0.05000000</i>
  <i type="int" name="NWRITE">     3</i>
  <i type="logical" name="LWAVE"> F  </i>
  <i type="logical" name="LVTOT"> T  </i>
  <i type="logical" name="LVHAR"> F  </i>
  <i type="logical" name="LORBIT"> F  </i>
  <v type="int" name="KPOINT_BSE">    -1     0     0     0</v>
  <i type="int" name="NELM">   100</i>
 </incar>
 <kpoints>
  <generation param="Monkhorst-Pack">
   <v type="int" name="divisions">       3        3        6 </v>
   <v name="usershift">      0.00000000       0.00000000       0.00000000 </v>
   <v name="genvec1">      0.33333333       0.00000000       0.00000000 </v>
   <v name="genvec2">      0.00000000       0.33333333       0.00000000 </v>
   <v name="genvec3">      0.00000000       0.00000000       0.16666667 </v>
   <v name="shift">      0.00000000       0.00000000       0.50000000 </v>
  </generation>
  <varray name="kpointlist" >
   <v>       0.00000000       0.00000000       0.08333333 </v>
   <v>       0.33333333       0.00000000       0.08333333 </v>
   <v>       0.00000000       0.33333333       0.08333333 </v>
   <v>       0.33333333       0.33333333       0.08333333 </v>
   <v>       0.00000000       0.00000000       0.25000000 </v>
   <v>       0.33333333       0.00000000       0.25000000 </v>
   <v>       0.00000000       0.33333333       0.25000000 </v>
   <v>       0.33333333       0.33333333       0.25000000 </v>
   <v>       0.00000000       0.00000000       0.41666667 </v>
   <v>       0.33333333       0.00000000       0.41666667 </v>
   <v>       0.00000000       0.33333333       0.41666667 </v>
   <v>       0.33333333       0.33333333       0.41666667 </v>
  </varray>
  <varray name="weights" >
   <v>       0.03703704 </v>
   <v>       0.07407407 </v>
   <v>       0.07407407 </v>
   <v>       0.14814815 </v>
   <v>       0.03703704 </v>
   <v>       0.07407407 </v>
   <v>       0.07407407 </v>
   <v>       0.14814815 </v>
   <v>       0.03703704 </v>
   <v>       0.07407407 </v>
   <v>       0.07407407 </v>
   <v>       0.14814815 </v>
  </varray>
  <varray name="tetrahedronlist"  type="int" >
   <v type="int" >        2        1        2        4        5 </v>
   <v type="int" >        2        1        3        4        5 </v>
   <v type="int" >        2        3        4        5        7 </v>
   <v type="int" >        2        2        4        5        6 </v>
   <v type="int" >        2        4        5        6        8 </v>
   <v type="int" >        2        4        5        7        8 </v>
   <v type="int" >        2        2        2        4        6 </v>
   <v type="int" >        2        2        4        4        6 </v>
   <v type="int" >        2        4        4        6        8 </v>
   <v type="int" >        2        2        4        6        6 </v>
   <v type="int" >        2        4        6        6        8 </v>
   <v type="int" >        2        4        6        8        8 </v>
   <v type="int" >        2        1        2        3        6 </v>
   <v type="int" >        2        2        3        4        6 </v>
   <v type="int" >        2        3        4        6        8 </v>
   <v type="int" >        2        1        3        5        6 </v>
   <v type="int" >        2        3        5        6        7 </v>
   <v type="int" >        2        3        6        7        8 </v>
   <v type="int" >        2        3        4        4        7 </v>
   <v type="int" >        2        3        3        4        7 </v>
   <v type="int" >        2        3        4        7        7 </v>
   <v type="int" >        2        4        4        7        8 </v>
   <v type="int" >        2        4        7        8        8 </v>
   <v type="int" >        2        4        7        7        8 </v>
   <v type="int" >        4        4        4        4        8 </v>
   <v type="int" >        4        4        4        8        8 </v>
   <v type="int" >        4        4        8        8        8 </v>
   <v type="int" >        2        3        3        4        8 </v>
   <v type="int" >        2        3        4        4        8 </v>
   <v type="int" >        2        3        4        8        8 </v>
   <v type="int" >        2        3        3        7        8 </v>
   <v type="int" >        2        3        7        7        8 </v>
   <v type="int" >        2        3        7        8        8 </v>
   <v type="int" >        2        2        3        4        7 </v>
   <v type="int" >        2        1        2        3        7 </v>
   <v type="int" >        2        1        2        5        7 </v>
   <v type="int" >        2        2        4        7        8 </v>
   <v type="int" >        2        2        6        7        8 </v>
   <v type="int" >        2        2        5        6        7 </v>
   <v type="int" >        2        2        4        4        8 </v>
   <v type="int" >        2        2        2        4        8 </v>
   <v type="int" >        2        2        2        6        8 </v>
   <v type="int" >        2        2        4        8        8 </v>
   <v type="int" >        2        2        6        8        8 </v>
   <v type="int" >        2        2        6        6        8 </v>
   <v type="int" >        2        1        3        4        8 </v>
   <v type="int" >        2        1        2        4        8 </v>
   <v type="int" >        2        1        2        6        8 </v>
   <v type="int" >        2        1        3        7        8 </v>
   <v type="int" >        2        1        5        7        8 </v>
   <v type="int" >        2        1        5        6        8 </v>
   <v type="int" >        2        5        6        8        9 </v>
   <v type="int" >        2        5        7        8        9 </v>
   <v type="int" >        2        7        8        9       11 </v>
   <v type="int" >        2        6        8        9       10 </v>
   <v type="int" >        2        8        9       10       12 </v>
   <v type="int" >        2        8        9       11       12 </v>
   <v type="int" >        2        6        6        8       10 </v>
   <v type="int" >        2        6        8        8       10 </v>
   <v type="int" >        2        8        8       10       12 </v>
   <v type="int" >        2        6        8       10       10 </v>
   <v type="int" >        2        8       10       10       12 </v>
   <v type="int" >        2        8       10       12       12 </v>
   <v type="int" >        2        5        6        7       10 </v>
   <v type="int" >        2        6        7        8       10 </v>
   <v type="int" >        2        7        8       10       12 </v>
   <v type="int" >        2        5        7        9       10 </v>
   <v type="int" >        2        7        9       10       11 </v>
   <v type="int" >        2        7       10       11       12 </v>
   <v type="int" >        2        7        8        8       11 </v>
   <v type="int" >        2        7        7        8       11 </v>
   <v type="int" >        2        7        8       11       11 </v>
   <v type="int" >        2        8        8       11       12 </v>
   <v type="int" >        2        8       11       12       12 </v>
   <v type="int" >        2        8       11       11       12 </v>
   <v type="int" >        4        8        8        8       12 </v>
   <v type="int" >        4        8        8       12       12 </v>
   <v type="int" >        4        8       12       12       12 </v>
   <v type="int" >        2        7        7        8       12 </v>
   <v type="int" >        2        7        8        8       12 </v>
   <v type="int" >        2        7        8       12       12 </v>
   <v type="int" >        2        7        7       11       12 </v>
   <v type="int" >        2        7       11       11       12 </v>
   <v type="int" >        2        7       11       12       12 </v>
   <v type="int" >        2        6        7        8       11 </v>
   <v type="int" >        2        5        6        7       11 </v>
   <v type="int" >        2        5        6        9       11 </v>
   <v type="int" >        2        6        8       11       12 </v>
   <v type="int" >        2        6       10       11       12 </v>
   <v type="int" >        2        6        9       10       11 </v>
   <v type="int" >        2        6        8        8       12 </v>
   <v type="int" >        2        6        6        8       12 </v>
   <v type="int" >        2        6        6       10       12 </v>
   <v type="int" >        2        6        8       12       12 </v>
   <v type="int" >        2        6       10       12       12 </v>
   <v type="int" >        2        6       10       10       12 </v>
   <v type="int" >        2        5        7        8       12 </v>
   <v type="int" >        2        5        6        8       12 </v>
   <v type="int" >        2        5        6       10       12 </v>
   <v type="int" >        2        5        7       11       12 </v>
   <v type="int" >        2        5        9       11       12 </v>
   <v type="int" >        2        5        9       10       12 </v>
   <v type="int" >        2        9        9       10       12 </v>
   <v type="int" >        2        9        9       11       12 </v>
   <v type="int" >        2        9       11       11       12 </v>
   <v type="int" >        2        9       10       10       12 </v>
   <v type="int" >        2        9       10       12       12 </v>
   <v type="int" >        2        9       11       12       12 </v>
   <v type="int" >        4       10       10       10       12 </v>
   <v type="int" >        4       10       10       12       12 </v>
   <v type="int" >        4       10       12       12       12 </v>
   <v type="int" >        2        9       10       10       11 </v>
   <v type="int" >        2       10       10       11       12 </v>
   <v type="int" >        2       10       11       12       12 </v>
   <v type="int" >        2        9        9       10       11 </v>
   <v type="int" >        2        9       10       11       11 </v>
   <v type="int" >        2       10       11       11       12 </v>
   <v type="int" >        4       11       11       12       12 </v>
   <v type="int" >        4       11       11       11       12 </v>
   <v type="int" >        4       11       12       12       12 </v>
   <v type="int" >        6       12       12       12       12 </v>
   <v type="int" >        2        1        1        2        4 </v>
   <v type="int" >        2        1        1        3        4 </v>
   <v type="int" >        2        1        3        3        4 </v>
   <v type="int" >        2        1        2        2        4 </v>
   <v type="int" >        2        1        2        4        4 </v>
   <v type="int" >        2        1        3        4        4 </v>
   <v type="int" >        4        2        2        2        4 </v>
   <v type="int" >        4        2        2        4        4 </v>
   <v type="int" >        4        2        4        4        4 </v>
   <v type="int" >        2        1        2        2        3 </v>
   <v type="int" >        2        2        2        3        4 </v>
   <v type="int" >        2        2        3        4        4 </v>
   <v type="int" >        2        1        1        2        3 </v>
   <v type="int" >        2        1        2        3        3 </v>
   <v type="int" >        2        2        3        3        4 </v>
   <v type="int" >        4        3        3        4        4 </v>
   <v type="int" >        4        3        3        3        4 </v>
   <v type="int" >        4        3        4        4        4 </v>
   <v type="int" >        6        4        4        4        4 </v>
  </varray>
  <i name="volumeweight">      0.00308642 </i>
 </kpoints>
 <parameters>
  <separator name="general" >
   <i type="string" name="SYSTEM">unknown system</i>
   <i type="logical" name="LCOMPAT"> F  </i>
  </separator>
  <separator name="electronic" >
   <i type="string" name="PREC">high</i>
   <i name="ENMAX">    520.00000000</i>
   <i name="ENAUG">    291.05200000</i>
   <i name="EDIFF">      0.00020000</i>
   <i type="int" name="IALGO">    68</i>
   <i type="int" name="IWAVPR">    10</i>
   <i type="int" name="NBANDS">    33</i>
   <i name="NELECT">     48.00000000</i>
   <i type="int" name="TURBO">     0</i>
   <i type="int" name="IRESTART">     0</i>
   <i type="int" name="NREBOOT">     0</i>
   <i type="int" name="NMIN">     0</i>
   <i name="EREF">      0.00000000</i>
   <separator name="electronic smearing" >
    <i type="int" name="ISMEAR">    -5</i>
    <i name="SIGMA">      0.05000000</i>
    <i name="KSPACING">      0.50000000</i>
    <i type="logical" name="KGAMMA"> T  </i>
   </separator>
   <separator name="electronic projectors" >
    <i type="logical" name="LREAL"> F  </i>
    <v name="ROPT">      0.00000000</v>
    <i type="int" name="LMAXPAW">  -100</i>
    <i type="int" name="LMAXMIX">     2</i>
    <i type="logical" name="NLSPLINE"> F  </i>
   </separator>
   <separator name="electronic startup" >
    <i type="int" name="ISTART">     0</i>
    <i type="int" name="ICHARG">     1</i>
    <i type="int" name="INIWAV">     1</i>
   </separator>
   <separator name="electronic spin" >
    <i type="int" name="ISPIN">     1</i>
    <i type="logical" name="LNONCOLLINEAR"> F  </i>
    <v name="MAGMOM">      1.00000000      1.00000000      1.00000000      1.00000000      1.00000000      1.00000000      1.00000000      1.00000000      1.00000000      1.00000000      1.00000000      1.00000000      1.00000000      1.00000000      1.00000000      1.00000000</v>
    <i name="NUPDOWN">     -1.00000000</i>
    <i type="logical" name="LSORBIT"> F  </i>
    <v name="SAXIS">      0.00000000      0.00000000      1.00000000</v>
    <i type="logical" name="LSPIRAL"> F  </i>
    <v name="QSPIRAL">      0.00000000      0.00000000      0.00000000</v>
    <i type="logical" name="LZEROZ"> F  </i>
   </separator>
   <separator name="electronic exchange-correlation" >
    <i type="logical" name="LASPH"> F  </i>
    <i type="logical" name="LMETAGGA"> F  </i>
   </separator>
   <separator name="electronic convergence" >
    <i type="int" name="NELM">   100</i>
    <i type="int" name="NELMDL">     0</i>
    <i type="int" name="NELMIN">     2</i>
    <i name="ENINI">    520.00000000</i>
    <separator name="electronic convergence detail" >
     <i type="logical" name="LDIAG"> T  </i>
     <i type="logical" name="LSUBROT"> F  </i>
     <i name="WEIMIN">      0.00000000</i>
     <i name="EBREAK">      0.00000152</i>
     <i name="DEPER">      0.30000000</i>
     <i type="int" name="NRMM">     4</i>
     <i name="TIME">      0.40000000</i>
    </separator>
   </separator>
   <separator name="electronic mixer" >
    <i name="AMIX">      0.40000000</i>
    <i name="BMIX">      1.00000000</i>
    <i name="AMIN">      0.10000000</i>
    <i name="AMIX_MAG">      1.60000000</i>
    <i name="BMIX_MAG">      1.00000000</i>
    <separator name="electronic mixer details" >
     <i type="int" name="IMIX">     4</i>
     <i type="logical" name="MIXFIRST"> F  </i>
     <i type="int" name="MAXMIX">   -45</i>
     <i name="WC">    100.00000000</i>
     <i type="int" name="INIMIX">     1</i>
     <i type="int" name="MIXPRE">     1</i>
     <i type="int" name="MREMOVE">     5</i>
    </separator>
   </separator>
   <separator name="electronic dipolcorrection" >
    <i type="logical" name="LDIPOL"> F  </i>
    <i type="logical" name="LMONO"> F  </i>
    <i type="int" name="IDIPOL">     0</i>
    <i name="EPSILON">      1.00000000</i>
    <v name="DIPOL">   -100.00000000   -100.00000000   -100.00000000</v>
    <i name="EFIELD">      0.00000000</i>
   </separator>
  </separator>
  <separator name="grids" >
   <i type="int" name="NGX">    60</i>
   <i type="int" name="NGY">    60</i>
   <i type="int" name="NGZ">    30</i>
   <i type="int" name="NGXF">    60</i>
   <i type="int" name="NGYF">    60</i>
   <i type="int" name="NGZF">    30</i>
   <i type="logical" name="ADDGRID"> F  </i>
  </separator>
  <separator name="ionic" >
   <i type="int" name="NSW">     0</i>
   <i type="int" name="IBRION">    -1</i>
   <i type="int" name="ISIF">     3</i>
   <i name="PSTRESS">      0.00000000</i>
   <i name="EDIFFG">      0.00200000</i>
   <i type="int" name="NFREE">     0</i>
   <i name="POTIM">      0.50000000</i>
   <i name="SMASS">     -3.00000000</i>
   <i name="SCALEE">      1.00000000</i>
  </separator>
  <separator name="ionic md" >
   <i name="TEBEG">      0.00010000</i>
   <i name="TEEND">      0.00010000</i>
   <i type="int" name="NBLOCK">     1</i>
   <i type="int" name="KBLOCK">     1</i>
   <i type="int" name="NPACO">   256</i>
   <i name="APACO">     16.00000000</i>
  </separator>
  <separator name="symmetry" >
   <i type="int" name="ISYM">     2</i>
   <i name="SYMPREC">      0.00001000</i>
  </separator>
  <separator name="dos" >
   <i type="logical" name="LORBIT"> T  </i>
   <v name="RWIGS">     -1.00000000</v>
   <i type="int" name="NEDOS">   301</i>
   <i name="EMIN">     10.00000000</i>
   <i name="EMAX">    -10.00000000</i>
   <i name="EFERMI">      0.00000000</i>
  </separator>
  <separator name="writing" >
   <i type="int" name="NWRITE">     3</i>
   <i type="logical" name="LWAVE"> F  </i>
   <i type="logical" name="LCHARG"> T  </i>
   <i type="logical" name="LPARD"> F  </i>
   <i type="logical" name="LVTOT"> T  </i>
   <i type="logical" name="LVHAR"> F  </i>
   <i type="logical" name="LELF"> F  </i>
   <i type="logical" name="LOPTICS"> F  </i>
   <v name="STM">      0.00000000      0.00000000      0.00000000      0.00000000      0.00000000      0.00000000      0.00000000</v>
  </separator>
  <separator name="performance" >
   <i type="int" name="NPAR">     1</i>
   <i type="int" name="NSIM">     4</i>
   <i type="int" name="NBLK">    -1</i>
   <i type="logical" name="LPLANE"> T  </i>
   <i type="logical" name="LSCALAPACK"> T  </i>
   <i type="logical" name="LSCAAWARE"> F  </i>
   <i type="logical" name="LSCALU"> F  </i>
   <i type="logical" name="LASYNC"> F  </i>
   <i type="logical" name="LORBITALREAL"> F  </i>
  </separator>
  <separator name="miscellaneous" >
   <i type="int" name="IDIOT">     3</i>
   <i type="logical" name="LMUSIC"> F  </i>
   <v name="POMASS">     26.98100000</v>
   <v name="DARWINR">      0.00000000</v>
   <v name="DARWINV">      1.00000000</v>
   <i type="logical" name="LCORR"> T  </i>
  </separator>
  <i type="logical" name="GGA_COMPAT"> T  </i>
  <i type="logical" name="LBERRY"> F  </i>
  <i type="int" name="ICORELEVEL">     0</i>
  <i type="logical" name="LDAU"> F  </i>
  <i type="int" name="I_CONSTRAINED_M">     0</i>
  <separator name="electronic exchange-correlation" >
   <i type="string" name="GGA">--</i>
   <i type="int" name="VOSKOWN">     0</i>
   <i type="logical" name="LHFCALC"> F  </i>
   <i type="string" name="PRECFOCK"></i>
   <i type="logical" name="LSYMGRAD"> F  </i>
   <i type="logical" name="LHFONE"> F  </i>
   <i type="logical" name="LRHFCALC"> F  </i>
   <i type="logical" name="LTHOMAS"> F  </i>
   <i type="logical" name="LMODELHF"> F  </i>
   <i name="ENCUT4O">     -1.00000000</i>
   <i type="int" name="EXXOEP">     0</i>
   <i type="int" name="FOURORBIT">     0</i>
   <i name="AEXX">      0.00000000</i>
   <i name="HFALPHA">      0.00000000</i>
   <i name="MCALPHA">      0.00000000</i>
   <i name="ALDAX">      1.00000000</i>
   <i name="AGGAX">      1.00000000</i>
   <i name="ALDAC">      1.00000000</i>
   <i name="AGGAC">      1.00000000</i>
   <i type="int" name="NKREDX">     1</i>
   <i type="int" name="NKREDY">     1</i>
   <i type="int" name="NKREDZ">     1</i>
   <i type="logical" name="SHIFTRED"> F  </i>
   <i type="logical" name="ODDONLY"> F  </i>
   <i type="logical" name="EVENONLY"> F  </i>
   <i type="int" name="LMAXFOCK">     0</i>
   <i type="int" name="NMAXFOCKAE">     0</i>
   <i type="logical" name="LFOCKAEDFT"> F  </i>
   <i name="HFSCREEN">      0.00000000</i>
   <i name="HFSCREENC">      0.00000000</i>
   <i type="int" name="NBANDSGWLOW">     0</i>
  </separator>
  <separator name="vdW DFT" >
   <i type="logical" name="LUSE_VDW"> F  </i>
   <i name="Zab_VDW">     -0.84910000</i>
   <i name="PARAM1">      0.12340000</i>
   <i name="PARAM2">      1.00000000</i>
   <i name="PARAM3">      0.00000000</i>
  </separator>
  <separator name="model GW" >
   <i type="int" name="MODEL_GW">     0</i>
   <i name="MODEL_EPS0">      9.88303283</i>
   <i name="MODEL_ALPHA">      1.00000000</i>
  </separator>
  <separator name="linear response parameters" >
   <i type="logical" name="LEPSILON"> F  </i>
   <i type="logical" name="LRPA"> F  </i>
   <i type="logical" name="LNABLA"> F  </i>
   <i type="logical" name="LVEL"> F  </i>
   <i type="int" name="KINTER">     0</i>
   <i name="CSHIFT">      0.10000000</i>
   <i name="OMEGAMAX">     -1.00000000</i>
   <i name="DEG_THRESHOLD">      0.00200000</i>
  </separator>
  <separator name="orbital magnetization" >
   <i type="logical" name="NUCIND"> F  </i>
   <v name="MAGPOS">      0.00000000      0.00000000      0.00000000</v>
   <i type="logical" name="LNICSALL"> T  </i>
   <i type="logical" name="ORBITALMAG"> F  </i>
   <i type="logical" name="LMAGBLOCH"> F  </i>
   <i type="logical" name="LCHIMAG"> F  </i>
   <i type="logical" name="LGAUGE"> T  </i>
   <i type="int" name="MAGATOM">     0</i>
   <v name="MAGDIPOL">      0.00000000      0.00000000      0.00000000</v>
   <v name="AVECCONST">      0.00000000      0.00000000      0.00000000</v>
  </separator>
  <separator name="response functions" >
   <i type="logical" name="LADDER"> F  </i>
   <i type="logical" name="LFXC"> F  </i>
   <i type="logical" name="LHARTREE"> T  </i>
   <i type="int" name="IBSE">     0</i>
   <v type="int" name="KPOINT">    -1     0     0     0</v>
   <i type="logical" name="LTCTE"> F  </i>
   <i type="logical" name="LTETE"> F  </i>
   <i type="logical" name="LTRIPLET"> F  </i>
   <i type="logical" name="LFXCEPS"> F  </i>
   <i type="logical" name="LFXHEG"> F  </i>
   <i type="int" name="NATURALO">     0</i>
   <i type="logical" name="L2ORDER"> F  </i>
   <i type="logical" name="LUSEW"> F  </i>
   <i name="ENCUTGW">     -2.00000000</i>
   <i name="ENCUTGWSOFT">     -2.00000000</i>
   <i name="ENCUTLF">     -1.00000000</i>
   <i type="int" name="LMAXMP2">    -1</i>
   <i name="SCISSOR">      0.00000000</i>
   <i type="int" name="NOMEGA">     0</i>
   <i type="int" name="NOMEGAR">     0</i>
   <i type="int" name="NBANDSGW">    -1</i>
   <i type="int" name="NBANDSO">    -1</i>
   <i type="int" name="NBANDSV">    -1</i>
   <i type="int" name="NELM">   100</i>
   <i type="int" name="NELMHF">     1</i>
   <i type="int" name="DIM">     3</i>
   <i type="int" name="ANTIRES">     0</i>
   <i name="OMEGAMAX">    -30.00000000</i>
   <i name="OMEGAMIN">    -30.00000000</i>
   <i name="OMEGATL">   -200.00000000</i>
   <i type="int" name="OMEGAGRID">     0</i>
   <i name="CSHIFT">     -0.10000000</i>
   <i type="logical" name="SELFENERGY"> F  </i>
   <i type="logical" name="LSPECTRAL"> F  </i>
   <i type="logical" name="LSPECTRALGW"> F  </i>
   <i type="logical" name="LSINGLES"> F  </i>
   <i type="logical" name="LFERMIGW"> F  </i>
   <i type="logical" name="ODDONLYGW"> F  </i>
   <i type="logical" name="EVENONLYGW"> F  </i>
   <i type="int" name="NKREDLFX">     1</i>
   <i type="int" name="NKREDLFY">     1</i>
   <i type="int" name="NKREDLFZ">     1</i>
   <i type="int" name="MAXMEM">  1800</i>
   <i type="int" name="TELESCOPE">     0</i>
   <i type="int" name="TAUPAR">     1</i>
   <i type="int" name="OMEGAPAR">    -1</i>
   <i name="LAMBDA">      1.00000000</i>
  </separator>
  <separator name="External order field" >
   <i name="OFIELD_KAPPA">      0.00000000</i>
   <v name="OFIELD_K">      0.00000000      0.00000000      0.00000000</v>
   <i name="OFIELD_Q6_NEAR">      0.00000000</i>
   <i name="OFIELD_Q6_FAR">      0.00000000</i>
   <i name="OFIELD_A">      0.00000000</i>
  </separator>
 </parameters>
 <atominfo>
  <atoms>      16 </atoms>
  <types>       1 </types>
  <array name="atoms" >
   <dimension dim="1">ion</dimension>
   <field type="string">element</field>
   <field type="int">atomtype</field>
   <set>
    <rc><c>Al</c><c>   1</c></rc>
    <rc><c>Al</c><c>   1</c></rc>
    <rc><c>Al</c><c>   1</c></rc>
    <rc><c>Al</c><c>   1</c></rc>
    <rc><c>Al</c><c>   1</c></rc>
    <rc><c>Al</c><c>   1</c></rc>
    <rc><c>Al</c><c>   1</c></rc>
    <rc><c>Al</c><c>   1</c></rc>
    <rc><c>Al</c><c>   1</c></rc>
    <rc><c>Al</c><c>   1</c></rc>
    <rc><c>Al</c><c>   1</c></rc>
    <rc><c>Al</c><c>   1</c></rc>
    <rc><c>Al</c><c>   1</c></rc>
    <rc><c>Al</c><c>   1</c></rc>
    <rc><c>Al</c><c>   1</c></rc>
    <rc><c>Al</c><c>   1</c></rc>
   </set>
  </array>
  <array name="atomtypes" >
   <dimension dim="1">type</dimension>
   <field type="int">atomspertype</field>
   <field type="string">element</field>
   <field>mass</field>
   <field>valence</field>
   <field type="string">pseudopotential</field>
   <set>
    <rc><c>  16</c><c>Al</c><c>     26.98100000</c><c>      3.00000000</c><c>  PAW_PBE Al 04Jan2001                  </c></rc>
   </set>
  </array>
 </atominfo>
 <structure name="initialpos" >
  <crystal>
   <varray name="basis" >
    <v>       8.07786000       0.00000000       0.00000000 </v>
    <v>       0.00000000       8.07786000       0.00000000 </v>
    <v>       0.00000000       0.00000000       4.03893000 </v>
   </varray>
   <i name="volume">    263.54754216 </i>
   <varray name="rec_basis" >
    <v>       0.12379516       0.00000000       0.00000000 </v>
    <v>       0.00000000       0.12379516       0.00000000 </v>
    <v>       0.00000000       0.00000000       0.24759033 </v>
   </varray>
  </crystal>
  <varray name="positions" >
   <v>       0.99876200       0.00000000       0.00000000 </v>
   <v>       0.00000000       0.25000000       0.50000000 </v>
   <v>       0.25000000       0.00000000       0.50000000 </v>
   <v>       0.25000000       0.25000000       0.00000000 </v>
   <v>       0.00000000       0.50000000       0.00000000 </v>
   <v>       0.00000000       0.75000000       0.50000000 </v>
   <v>       0.25000000       0.50000000       0.50000000 </v>
   <v>       0.25000000       0.75000000       0.00000000 </v>
   <v>       0.50000000       0.00000000       0.00000000 </v>
   <v>       0.50000000       0.25000000       0.50000000 </v>
   <v>       0.75000000       0.00000000       0.50000000 </v>
   <v>       0.75000000       0.25000000       0.00000000 </v>
   <v>       0.50000000       0.50000000       0.00000000 </v>
   <v>       0.50000000       0.75000000       0.50000000 </v>
   <v>       0.75000000       0.50000000       0.50000000 </v>
   <v>       0.75000000       0.75000000       0.00000000 </v>
  </varray>
 </structure>
 <calculation>
  <scstep>
   <time name="dav">    7.93    7.94</time>
   <time name="total">    8.03    8.04</time>
   <energy>
    <i name="alphaZ">     -3.26261944 </i>
    <i name="ewald">  -1176.92262222 </i>
    <i name="hartreedc">     -1.67657138 </i>
    <i name="XCdc">   -418.02105804 </i>
    <i name="pawpsdc">   2267.61102540 </i>
    <i name="pawaedc">  -1756.53838808 </i>
    <i name="eentropy">      0.00000000 </i>
    <i name="bandstr">    299.37159929 </i>
    <i name="atom">    856.61531302 </i>
    <i name="e_fr_energy">     67.17667855 </i>
    <i name="e_wo_entrp">     67.17667855 </i>
    <i name="e_0_energy">     67.17667855 </i>
   </energy>
  </scstep>
  <scstep>
   <time name="dav">    8.98    8.99</time>
   <time name="total">    8.99    9.01</time>
   <energy>
    <i name="e_fr_energy">    -53.02993514 </i>
    <i name="e_wo_entrp">    -53.02993514 </i>
    <i name="e_0_energy">    -53.02993514 </i>
   </energy>
  </scstep>
  <scstep>
   <time name="dav">    9.54    9.55</time>
   <time name="total">    9.55    9.56</time>
   <energy>
    <i name="e_fr_energy">    -59.75402064 </i>
    <i name="e_wo_entrp">    -59.75402064 </i>
    <i name="e_0_energy">    -59.75402064 </i>
   </energy>
  </scstep>
  <scstep>
   <time name="dav">    8.83    8.84</time>
   <time name="total">    8.84    8.85</time>
   <energy>
    <i name="e_fr_energy">    -59.88452927 </i>
    <i name="e_wo_entrp">    -59.88452927 </i>
    <i name="e_0_energy">    -59.88452927 </i>
   </energy>
  </scstep>
  <scstep>
   <time name="dav">    9.24    9.25</time>
   <time name="total">    9.81    9.82</time>
   <energy>
    <i name="e_fr_energy">    -59.88624044 </i>
    <i name="e_wo_entrp">    -59.88624044 </i>
    <i name="e_0_energy">    -59.88624044 </i>
   </energy>
  </scstep>
  <scstep>
   <time name="diag">    1.54    1.54</time>
   <time name="diis">    4.51    4.52</time>
   <time name="orth">    0.25    0.25</time>
   <time name="total">    6.41    6.42</time>
   <energy>
    <i name="alphaZ">     -3.26261944 </i>
    <i name="ewald">  -1176.92262222 </i>
    <i name="hartreedc">     -1.67613249 </i>
    <i name="XCdc">   -418.02152892 </i>
    <i name="pawpsdc">   2262.26979208 </i>
    <i name="pawaedc">  -1751.19638088 </i>
    <i name="eentropy">      0.00000000 </i>
    <i name="bandstr">    172.30788689 </i>
    <i name="atom">    856.61531302 </i>
    <i name="e_fr_energy">    -59.88629196 </i>
    <i name="e_wo_entrp">    -59.88629196 </i>
    <i name="e_0_energy">    -59.88629196 </i>
   </energy>
  </scstep>
  <structure>
   <crystal>
    <varray name="basis" >
     <v>       8.07786000       0.00000000       0.00000000 </v>
     <v>       0.00000000       8.07786000       0.00000000 </v>
     <v>       0.00000000       0.00000000       4.03893000 </v>
    </varray>
    <i name="volume">    263.54754216 </i>
    <varray name="rec_basis" >
     <v>       0.12379516       0.00000000       0.00000000 </v>
     <v>       0.00000000       0.12379516       0.00000000 </v>
     <v>       0.00000000       0.00000000       0.24759033 </v>
    </varray>
   </crystal>
   <varray name="positions" >
    <v>       0.99876200       0.00000000       0.00000000 </v>
    <v>       0.00000000       0.25000000       0.50000000 </v>
    <v>       0.25000000       0.00000000       0.50000000 </v>
    <v>       0.25000000       0.25000000       0.00000000 </v>
    <v>       0.00000000       0.50000000       0.00000000 </v>
    <v>       0.00000000       0.75000000       0.50000000 </v>
    <v>       0.25000000       0.50000000       0.50000000 </v>
    <v>       0.25000000       0.75000000       0.00000000 </v>
    <v>       0.50000000       0.00000000       0.00000000 </v>
    <v>       0.50000000       0.25000000       0.50000000 </v>
    <v>       0.75000000       0.00000000       0.50000000 </v>
    <v>       0.75000000       0.25000000       0.00000000 </v>
    <v>       0.50000000       0.50000000       0.00000000 </v>
    <v>       0.50000000       0.75000000       0.50000000 </v>
    <v>       0.75000000       0.50000000       0.50000000 </v>
    <v>       0.75000000       0.75000000       0.00000000 </v>
   </varray>
  </structure>
  <varray name="forces" >
   <v>       0.03989949       0.00000000       0.00000000 </v>
   <v>      -0.00152643       0.00353302       0.00000000 </v>
   <v>       0.00161674       0.00000000       0.00000000 </v>
   <v>      -0.00266775      -0.01081380       0.00000000 </v>
   <v>      -0.01286095       0.00000000       0.00000000 </v>
   <v>      -0.00152643      -0.00353302       0.00000000 </v>
   <v>       0.00429365       0.00000000       0.00000000 </v>
   <v>      -0.00266775       0.01081380       0.00000000 </v>
   <v>      -0.01717443       0.00000000       0.00000000 </v>
   <v>      -0.00270537      -0.00386870       0.00000000 </v>
   <v>      -0.00589763       0.00000000       0.00000000 </v>
   <v>      -0.00253047       0.01055867       0.00000000 </v>
   <v>      -0.00310275       0.00000000       0.00000000 </v>
   <v>      -0.00270537       0.00386870       0.00000000 </v>
   <v>       0.01208592       0.00000000       0.00000000 </v>
   <v>      -0.00253047      -0.01055867       0.00000000 </v>
  </varray>
  <varray name="stress" >
   <v>      -3.73966715       0.00000000       0.00000000 </v>
   <v>       0.00000000      -3.52512971       0.00000000 </v>
   <v>       0.00000000       0.00000000       5.80330167 </v>
  </varray>
  <energy>
   <i name="e_fr_energy">    -59.88629196 </i>
   <i name="e_wo_entrp">    -59.88629196 </i>
   <i name="e_0_energy">      0.00000000 </i>
  </energy>
  <time name="totalsc">   66.35   66.43</time>
  <eigenvalues>
   <array>
    <dimension dim="1">band</dimension>
    <dimension dim="2">kpoint</dimension>
    <dimension dim="3">spin</dimension>
    <field>eigene</field>
    <field>occ</field>
    <set>
     <set comment="spin 1">
      <set comment="kpoint 1">
       <r>   -3.0656    1.0000 </r>
       <r>   -0.8221    1.0000 </r>
       <r>   -0.8158    1.0000 </r>
       <r>   -0.8155    1.0000 </r>
       <r>   -0.8099    1.0000 </r>
       <r>    1.3956    1.0000 </r>
       <r>    1.3976    1.0000 </r>
       <r>    1.4007    1.0000 </r>
       <r>    1.4014    1.0000 </r>
       <r>    4.2214    1.0000 </r>
       <r>    5.1475    1.0000 </r>
       <r>    5.1475    1.0000 </r>
       <r>    6.3281    1.0000 </r>
       <r>    6.3350    1.0000 </r>
       <r>    6.3353    1.0000 </r>
       <r>    6.3414    1.0000 </r>
       <r>    6.4775    1.0000 </r>
       <r>    6.4776    1.0000 </r>
       <r>    7.2224    1.0000 </r>
       <r>    7.2272    1.0000 </r>
       <r>    7.2278    1.0191 </r>
       <r>    7.2326    1.0235 </r>
       <r>    7.3943    1.0198 </r>
       <r>    8.4649   -0.1077 </r>
       <r>    8.4676   -0.0585 </r>
       <r>    8.4708   -0.0078 </r>
       <r>    8.4722    0.0000 </r>
       <r>    8.5700    0.0000 </r>
       <r>    8.5755    0.0000 </r>
       <r>    8.5758    0.0000 </r>
       <r>    8.5809    0.0000 </r>
       <r>    9.7423    0.0000 </r>
       <r>    9.7464    0.0000 </r>
      </set>
      <set comment="kpoint 2">
       <r>   -2.8138    1.0000 </r>
       <r>   -2.0612    1.0000 </r>
       <r>   -0.5684    1.0000 </r>
       <r>   -0.5677    1.0000 </r>
       <r>    0.1725    1.0000 </r>
       <r>    0.1731    1.0000 </r>
       <r>    0.9076    1.0000 </r>
       <r>    3.0764    1.0000 </r>
       <r>    3.0945    1.0000 </r>
       <r>    3.0951    1.0000 </r>
       <r>    4.4582    1.0000 </r>
       <r>    5.1664    1.0000 </r>
       <r>    5.2186    1.0000 </r>
       <r>    5.2191    1.0000 </r>
       <r>    5.3782    1.0000 </r>
       <r>    6.0709    1.0000 </r>
       <r>    6.5962    1.0000 </r>
       <r>    6.5969    1.0000 </r>
       <r>    6.7183    1.0000 </r>
       <r>    7.2970    1.0000 </r>
       <r>    7.2977    1.0406 </r>
       <r>    7.3747    1.0434 </r>
       <r>    7.6294    0.9235 </r>
       <r>    8.0844    0.0925 </r>
       <r>    8.3085   -0.0308 </r>
       <r>    8.8501   -0.0228 </r>
       <r>    8.9834    0.0000 </r>
       <r>    9.7487    0.0000 </r>
       <r>    9.7491    0.0000 </r>
       <r>   10.0939    0.0000 </r>
       <r>   10.1010    0.0000 </r>
       <r>   10.1052    0.0000 </r>
       <r>   10.4768    0.0000 </r>
      </set>
      <set comment="kpoint 3">
       <r>   -2.8138    1.0000 </r>
       <r>   -2.0612    1.0000 </r>
       <r>   -0.5703    1.0000 </r>
       <r>   -0.5658    1.0000 </r>
       <r>    0.1706    1.0000 </r>
       <r>    0.1750    1.0000 </r>
       <r>    0.9076    1.0000 </r>
       <r>    3.0765    1.0000 </r>
       <r>    3.0925    1.0000 </r>
       <r>    3.0970    1.0000 </r>
       <r>    4.4582    1.0000 </r>
       <r>    5.1663    1.0000 </r>
       <r>    5.2165    1.0000 </r>
       <r>    5.2212    1.0000 </r>
       <r>    5.3783    1.0000 </r>
       <r>    6.0710    1.0000 </r>
       <r>    6.5941    1.0000 </r>
       <r>    6.5991    1.0000 </r>
       <r>    6.7183    1.0000 </r>
       <r>    7.2948    1.0000 </r>
       <r>    7.2999    1.0405 </r>
       <r>    7.3746    1.0434 </r>
       <r>    7.6294    0.9234 </r>
       <r>    8.0844    0.0920 </r>
       <r>    8.3085   -0.0308 </r>
       <r>    8.8500   -0.0228 </r>
       <r>    8.9835    0.0000 </r>
       <r>    9.7472    0.0000 </r>
       <r>    9.7506    0.0000 </r>
       <r>   10.0944    0.0000 </r>
       <r>   10.1000    0.0000 </r>
       <r>   10.1045    0.0000 </r>
       <r>   10.5008    0.0000 </r>
      </set>
      <set comment="kpoint 4">
       <r>   -2.5625    1.0000 </r>
       <r>   -1.8140    1.0000 </r>
       <r>   -1.8084    1.0000 </r>
       <r>   -1.0639    1.0000 </r>
       <r>    1.1495    1.0000 </r>
       <r>    1.1552    1.0000 </r>
       <r>    1.8834    1.0000 </r>
       <r>    1.8847    1.0000 </r>
       <r>    3.3162    1.0000 </r>
       <r>    3.3175    1.0000 </r>
       <r>    4.0324    1.0000 </r>
       <r>    4.0381    1.0000 </r>
       <r>    4.6944    1.0000 </r>
       <r>    4.7634    1.0000 </r>
       <r>    5.3943    1.0000 </r>
       <r>    5.4005    1.0000 </r>
       <r>    6.1291    1.0000 </r>
       <r>    6.8785    1.0000 </r>
       <r>    6.8812    1.0000 </r>
       <r>    7.8426    1.0000 </r>
       <r>    8.2141    0.6175 </r>
       <r>    8.2205    0.5523 </r>
       <r>    8.6288    0.0429 </r>
       <r>    8.6335   -0.0837 </r>
       <r>    8.9299   -0.0599 </r>
       <r>    8.9320   -0.0084 </r>
       <r>    9.0334    0.0000 </r>
       <r>    9.1967    0.0000 </r>
       <r>    9.1986    0.0000 </r>
       <r>    9.3354    0.0000 </r>
       <r>    9.9173    0.0000 </r>
       <r>    9.9260    0.0000 </r>
       <r>   10.3473    0.0000 </r>
      </set>
      <set comment="kpoint 5">
       <r>   -2.5625    1.0000 </r>
       <r>   -0.3270    1.0000 </r>
       <r>   -0.3206    1.0000 </r>
       <r>   -0.3204    1.0000 </r>
       <r>   -0.3147    1.0000 </r>
       <r>    1.8788    1.0000 </r>
       <r>    1.8838    1.0000 </r>
       <r>    1.8852    1.0000 </r>
       <r>    1.8884    1.0000 </r>
       <r>    1.8893    1.0000 </r>
       <r>    4.0435    1.0000 </r>
       <r>    4.0500    1.0000 </r>
       <r>    4.0503    1.0000 </r>
       <r>    4.0561    1.0000 </r>
       <r>    5.6090    1.0000 </r>
       <r>    5.6090    1.0000 </r>
       <r>    6.2085    1.0000 </r>
       <r>    6.2106    1.0000 </r>
       <r>    6.2139    1.0000 </r>
       <r>    6.2147    1.0000 </r>
       <r>    6.9586    1.0021 </r>
       <r>    6.9587    1.0048 </r>
       <r>    7.6856    0.9858 </r>
       <r>    7.6904    0.9898 </r>
       <r>    7.6910    0.9350 </r>
       <r>    7.6958    0.7403 </r>
       <r>    9.1686    0.0000 </r>
       <r>    9.1730    0.0000 </r>
       <r>    9.1734    0.0000 </r>
       <r>    9.1774    0.0000 </r>
       <r>    9.7786    0.0000 </r>
       <r>    9.7786    0.0000 </r>
       <r>   10.6092    0.0000 </r>
      </set>
      <set comment="kpoint 6">
       <r>   -2.3116    1.0000 </r>
       <r>   -1.5617    1.0000 </r>
       <r>   -0.0741    1.0000 </r>
       <r>   -0.0734    1.0000 </r>
       <r>    0.6643    1.0000 </r>
       <r>    0.6650    1.0000 </r>
       <r>    1.3967    1.0000 </r>
       <r>    2.1225    1.0000 </r>
       <r>    2.8487    1.0000 </r>
       <r>    3.5567    1.0000 </r>
       <r>    3.5718    1.0000 </r>
       <r>    3.5723    1.0000 </r>
       <r>    4.2836    1.0000 </r>
       <r>    4.2842    1.0000 </r>
       <r>    5.0275    1.0000 </r>
       <r>    5.0282    1.0000 </r>
       <r>    5.7029    1.0000 </r>
       <r>    5.7234    1.0000 </r>
       <r>    5.7239    1.0000 </r>
       <r>    5.8400    1.0000 </r>
       <r>    6.5332    1.0106 </r>
       <r>    7.1328    1.0127 </r>
       <r>    7.8621    0.9399 </r>
       <r>    7.8628    0.8988 </r>
       <r>    7.9343    0.6623 </r>
       <r>    8.0002    0.2682 </r>
       <r>    9.3142    0.0000 </r>
       <r>    9.4246    0.0000 </r>
       <r>    9.9387    0.0000 </r>
       <r>    9.9391    0.0000 </r>
       <r>   10.0123    0.0000 </r>
       <r>   10.6980    0.0000 </r>
       <r>   10.7558    0.0000 </r>
      </set>
      <set comment="kpoint 7">
       <r>   -2.3116    1.0000 </r>
       <r>   -1.5617    1.0000 </r>
       <r>   -0.0759    1.0000 </r>
       <r>   -0.0715    1.0000 </r>
       <r>    0.6624    1.0000 </r>
       <r>    0.6669    1.0000 </r>
       <r>    1.3967    1.0000 </r>
       <r>    2.1225    1.0000 </r>
       <r>    2.8487    1.0000 </r>
       <r>    3.5568    1.0000 </r>
       <r>    3.5698    1.0000 </r>
       <r>    3.5743    1.0000 </r>
       <r>    4.2816    1.0000 </r>
       <r>    4.2862    1.0000 </r>
       <r>    5.0256    1.0000 </r>
       <r>    5.0302    1.0000 </r>
       <r>    5.7028    1.0000 </r>
       <r>    5.7213    1.0000 </r>
       <r>    5.7261    1.0000 </r>
       <r>    5.8400    1.0000 </r>
       <r>    6.5333    1.0106 </r>
       <r>    7.1328    1.0127 </r>
       <r>    7.8600    0.9404 </r>
       <r>    7.8649    0.8966 </r>
       <r>    7.9342    0.6634 </r>
       <r>    8.0002    0.2678 </r>
       <r>    9.3141    0.0000 </r>
       <r>    9.4247    0.0000 </r>
       <r>    9.9364    0.0000 </r>
       <r>    9.9416    0.0000 </r>
       <r>   10.0110    0.0000 </r>
       <r>   10.7004    0.0000 </r>
       <r>   10.7806    0.0000 </r>
      </set>
      <set comment="kpoint 8">
       <r>   -2.0612    1.0000 </r>
       <r>   -1.3154    1.0000 </r>
       <r>   -1.3097    1.0000 </r>
       <r>   -0.5678    1.0000 </r>
       <r>    1.6377    1.0000 </r>
       <r>    1.6435    1.0000 </r>
       <r>    2.3645    1.0000 </r>
       <r>    2.3693    1.0000 </r>
       <r>    2.3706    1.0000 </r>
       <r>    3.0868    1.0000 </r>
       <r>    3.0926    1.0000 </r>
       <r>    3.7953    1.0000 </r>
       <r>    3.7966    1.0000 </r>
       <r>    3.8064    1.0000 </r>
       <r>    4.5039    1.0000 </r>
       <r>    4.5096    1.0000 </r>
       <r>    5.2697    1.0000 </r>
       <r>    5.9712    1.0000 </r>
       <r>    5.9772    1.0000 </r>
       <r>    6.6807    1.0000 </r>
       <r>    6.6822    1.0274 </r>
       <r>    7.3644    1.0218 </r>
       <r>    7.3667    1.0092 </r>
       <r>    8.0458    0.5533 </r>
       <r>    8.0476    0.3735 </r>
       <r>    8.7642   -0.0955 </r>
       <r>    8.7702    0.0000 </r>
       <r>    9.4325    0.0000 </r>
       <r>    9.5007    0.0000 </r>
       <r>    9.7316    0.0000 </r>
       <r>    9.7325    0.0000 </r>
       <r>   10.4236    0.0000 </r>
       <r>   10.4255    0.0000 </r>
      </set>
      <set comment="kpoint 9">
       <r>   -1.5617    1.0000 </r>
       <r>   -0.0743    1.0000 </r>
       <r>    0.6582    1.0000 </r>
       <r>    0.6646    1.0000 </r>
       <r>    0.6648    1.0000 </r>
       <r>    0.6705    1.0000 </r>
       <r>    2.1224    1.0000 </r>
       <r>    2.1289    1.0000 </r>
       <r>    2.1291    1.0000 </r>
       <r>    2.1348    1.0000 </r>
       <r>    2.8505    1.0000 </r>
       <r>    2.8524    1.0000 </r>
       <r>    2.8556    1.0000 </r>
       <r>    2.8562    1.0000 </r>
       <r>    4.3135    1.0000 </r>
       <r>    4.3154    1.0000 </r>
       <r>    4.3186    1.0000 </r>
       <r>    4.3193    1.0000 </r>
       <r>    6.5332    1.0000 </r>
       <r>    6.5333    1.0000 </r>
       <r>    7.8517    1.0000 </r>
       <r>    7.8518    1.0000 </r>
       <r>    7.9224    1.0000 </r>
       <r>    7.9225    0.9987 </r>
       <r>    8.6127   -0.0860 </r>
       <r>    8.6175   -0.1405 </r>
       <r>    8.6181    0.0000 </r>
       <r>    8.6230    0.0000 </r>
       <r>    9.5745    0.0000 </r>
       <r>    9.5746    0.0000 </r>
       <r>   10.0075    0.0000 </r>
       <r>   10.0170    0.0000 </r>
       <r>   10.0454    0.0000 </r>
      </set>
      <set comment="kpoint 10">
       <r>   -1.3126    1.0000 </r>
       <r>   -0.5679    1.0000 </r>
       <r>    0.1722    1.0000 </r>
       <r>    0.9078    1.0000 </r>
       <r>    0.9102    1.0000 </r>
       <r>    0.9109    1.0000 </r>
       <r>    1.6429    1.0000 </r>
       <r>    1.6435    1.0000 </r>
       <r>    2.3688    1.0000 </r>
       <r>    2.3718    1.0000 </r>
       <r>    2.3721    1.0000 </r>
       <r>    3.0934    1.0000 </r>
       <r>    3.0941    1.0000 </r>
       <r>    3.8153    1.0000 </r>
       <r>    4.5121    1.0000 </r>
       <r>    4.5547    1.0000 </r>
       <r>    4.5553    1.0000 </r>
       <r>    5.9243    1.0000 </r>
       <r>    5.9807    1.0000 </r>
       <r>    5.9813    1.0000 </r>
       <r>    6.6646    1.0000 </r>
       <r>    6.6651    1.0000 </r>
       <r>    6.7646    1.0000 </r>
       <r>    7.4590    1.0060 </r>
       <r>    8.0775    0.5305 </r>
       <r>    8.0781    0.3576 </r>
       <r>    8.1543    0.0000 </r>
       <r>    8.2258    0.0000 </r>
       <r>    8.8499    0.0000 </r>
       <r>    8.9496    0.0000 </r>
       <r>    9.5248    0.0000 </r>
       <r>   10.2450    0.0000 </r>
       <r>   10.3598    0.0000 </r>
      </set>
      <set comment="kpoint 11">
       <r>   -1.3126    1.0000 </r>
       <r>   -0.5679    1.0000 </r>
       <r>    0.1722    1.0000 </r>
       <r>    0.9070    1.0000 </r>
       <r>    0.9094    1.0000 </r>
       <r>    0.9125    1.0000 </r>
       <r>    1.6410    1.0000 </r>
       <r>    1.6454    1.0000 </r>
       <r>    2.3683    1.0000 </r>
       <r>    2.3704    1.0000 </r>
       <r>    2.3740    1.0000 </r>
       <r>    3.0915    1.0000 </r>
       <r>    3.0960    1.0000 </r>
       <r>    3.8153    1.0000 </r>
       <r>    4.5121    1.0000 </r>
       <r>    4.5527    1.0000 </r>
       <r>    4.5573    1.0000 </r>
       <r>    5.9243    1.0000 </r>
       <r>    5.9787    1.0000 </r>
       <r>    5.9834    1.0000 </r>
       <r>    6.6625    1.0000 </r>
       <r>    6.6673    1.0000 </r>
       <r>    6.7646    1.0000 </r>
       <r>    7.4590    1.0061 </r>
       <r>    8.0753    0.5347 </r>
       <r>    8.0803    0.3522 </r>
       <r>    8.1542    0.0000 </r>
       <r>    8.2258    0.0000 </r>
       <r>    8.8499    0.0000 </r>
       <r>    8.9496    0.0000 </r>
       <r>    9.5247    0.0000 </r>
       <r>   10.2581    0.0000 </r>
       <r>   10.4011    0.0000 </r>
      </set>
      <set comment="kpoint 12">
       <r>   -1.0639    1.0000 </r>
       <r>   -0.3234    1.0000 </r>
       <r>   -0.3177    1.0000 </r>
       <r>    0.4176    1.0000 </r>
       <r>    0.4199    1.0000 </r>
       <r>    1.1512    1.0000 </r>
       <r>    1.1569    1.0000 </r>
       <r>    1.8860    1.0000 </r>
       <r>    2.6090    1.0000 </r>
       <r>    2.6147    1.0000 </r>
       <r>    3.3316    1.0000 </r>
       <r>    3.3329    1.0000 </r>
       <r>    4.0472    1.0000 </r>
       <r>    4.0530    1.0000 </r>
       <r>    4.7439    1.0000 </r>
       <r>    4.7451    1.0000 </r>
       <r>    4.7935    1.0000 </r>
       <r>    4.7948    1.0000 </r>
       <r>    5.4838    1.0000 </r>
       <r>    5.4897    1.0000 </r>
       <r>    6.1935    1.0000 </r>
       <r>    6.1949    1.0000 </r>
       <r>    6.2158    1.0000 </r>
       <r>    6.8966    1.0260 </r>
       <r>    6.9025    1.1958 </r>
       <r>    7.6345    1.0164 </r>
       <r>    8.3080    0.0000 </r>
       <r>    8.3103    0.0000 </r>
       <r>    9.7123    0.0000 </r>
       <r>    9.7146    0.0000 </r>
       <r>   10.3810    0.0000 </r>
       <r>   10.6180    0.0000 </r>
       <r>   10.6187    0.0000 </r>
      </set>
     </set>
    </set>
   </array>
  </eigenvalues>
  <separator name="orbital magnetization" >
   <v name="MAGDIPOLOUT">      0.00000000      0.00000000      0.00000000</v>
  </separator>
  <dos>
   <i name="efermi">      8.01896145 </i>
   <total>
    <array>
     <dimension dim="1">gridpoints</dimension>
     <dimension dim="2">spin</dimension>
     <field>energy</field>
     <field>total</field>
     <field>integrated</field>
     <set>
      <set comment="spin 1">
       <r>    -3.7579     0.0000     0.0000 </r>
       <r>    -3.7071     0.0000     0.0000 </r>
       <r>    -3.6563     0.0000     0.0000 </r>
       <r>    -3.6056     0.0000     0.0000 </r>
       <r>    -3.5548     0.0000     0.0000 </r>
       <r>    -3.5040     0.0000     0.0000 </r>
       <r>    -3.4533     0.0000     0.0000 </r>
       <r>    -3.4025     0.0000     0.0000 </r>
       <r>    -3.3517     0.0000     0.0000 </r>
       <r>    -3.3009     0.0000     0.0000 </r>
       <r>    -3.2502     0.0000     0.0000 </r>
       <r>    -3.1994     0.0000     0.0000 </r>
       <r>    -3.1486     0.0000     0.0000 </r>
       <r>    -3.0979     0.0000     0.0000 </r>
       <r>    -3.0471     0.0448     0.0004 </r>
       <r>    -2.9963     0.1842     0.0061 </r>
       <r>    -2.9456     0.3476     0.0195 </r>
       <r>    -2.8948     0.5350     0.0418 </r>
       <r>    -2.8440     0.7464     0.0742 </r>
       <r>    -2.7933     1.5200     0.1296 </r>
       <r>    -2.7425     1.6176     0.2094 </r>
       <r>    -2.6917     1.6911     0.2935 </r>
       <r>    -2.6409     1.7406     0.3807 </r>
       <r>    -2.5902     1.7661     0.4698 </r>
       <r>    -2.5394     1.3270     0.5864 </r>
       <r>    -2.4886     1.3157     0.6536 </r>
       <r>    -2.4379     1.2923     0.7198 </r>
       <r>    -2.3871     1.2569     0.7846 </r>
       <r>    -2.3363     1.2094     0.8473 </r>
       <r>    -2.2856     1.1223     0.9068 </r>
       <r>    -2.2348     1.0154     0.9610 </r>
       <r>    -2.1840     0.9205     1.0101 </r>
       <r>    -2.1333     0.8378     1.0547 </r>
       <r>    -2.0825     0.7671     1.0954 </r>
       <r>    -2.0317     1.7155     1.1607 </r>
       <r>    -1.9810     1.8624     1.2516 </r>
       <r>    -1.9302     2.0013     1.3497 </r>
       <r>    -1.8794     2.1323     1.4546 </r>
       <r>    -1.8286     2.2552     1.5660 </r>
       <r>    -1.7779     2.1442     1.7486 </r>
       <r>    -1.7271     2.2026     1.8589 </r>
       <r>    -1.6763     2.2610     1.9722 </r>
       <r>    -1.6256     2.3193     2.0885 </r>
       <r>    -1.5748     2.3777     2.2077 </r>
       <r>    -1.5240     2.4516     2.3302 </r>
       <r>    -1.4733     2.5245     2.4566 </r>
       <r>    -1.4225     2.5898     2.5864 </r>
       <r>    -1.3717     2.6477     2.7194 </r>
       <r>    -1.3210     2.6980     2.8551 </r>
       <r>    -1.2702     2.9898     3.0081 </r>
       <r>    -1.2194     2.7999     3.1550 </r>
       <r>    -1.1686     2.6223     3.2926 </r>
       <r>    -1.1179     2.4573     3.4215 </r>
       <r>    -1.0671     2.3046     3.5423 </r>
       <r>    -1.0163     2.2423     3.7263 </r>
       <r>    -0.9656     2.4385     3.8450 </r>
       <r>    -0.9148     2.6503     3.9741 </r>
       <r>    -0.8640     2.8778     4.1144 </r>
       <r>    -0.8133     3.1213     4.2666 </r>
       <r>    -0.7625     3.3648     4.4312 </r>
       <r>    -0.7117     3.6218     4.6085 </r>
       <r>    -0.6610     3.8918     4.7992 </r>
       <r>    -0.6102     4.1748     5.0039 </r>
       <r>    -0.5594     4.1544     5.2211 </r>
       <r>    -0.5086     3.9951     5.4280 </r>
       <r>    -0.4579     3.8388     5.6268 </r>
       <r>    -0.4071     3.6853     5.8178 </r>
       <r>    -0.3563     3.5347     6.0010 </r>
       <r>    -0.3056     2.9239     6.2413 </r>
       <r>    -0.2548     2.7921     6.3863 </r>
       <r>    -0.2040     2.6727     6.5250 </r>
       <r>    -0.1533     2.5656     6.6579 </r>
       <r>    -0.1025     2.4708     6.7857 </r>
       <r>    -0.0517     2.3730     6.9088 </r>
       <r>    -0.0010     2.2762     7.0268 </r>
       <r>     0.0498     2.1864     7.1400 </r>
       <r>     0.1006     2.1036     7.2489 </r>
       <r>     0.1514     2.0277     7.3537 </r>
       <r>     0.2021     2.1553     7.4594 </r>
       <r>     0.2529     2.1943     7.5698 </r>
       <r>     0.3037     2.2374     7.6823 </r>
       <r>     0.3544     2.2846     7.7971 </r>
       <r>     0.4052     2.3358     7.9143 </r>
       <r>     0.4560     3.1423     8.1332 </r>
       <r>     0.5067     3.4191     8.2997 </r>
       <r>     0.5575     3.6933     8.4803 </r>
       <r>     0.6083     3.9649     8.6747 </r>
       <r>     0.6590     4.2344     8.8828 </r>
       <r>     0.7098     4.6813     9.1085 </r>
       <r>     0.7606     5.0544     9.3562 </r>
       <r>     0.8114     5.2900     9.6193 </r>
       <r>     0.8621     5.3880     9.8910 </r>
       <r>     0.9129     4.8492    10.1604 </r>
       <r>     0.9637     4.6658    10.4019 </r>
       <r>     1.0144     4.4800    10.6341 </r>
       <r>     1.0652     4.2918    10.8568 </r>
       <r>     1.1160     4.1011    11.0698 </r>
       <r>     1.1667     3.8436    11.4178 </r>
       <r>     1.2175     3.8154    11.6122 </r>
       <r>     1.2683     3.8048    11.8056 </r>
       <r>     1.3190     3.8118    11.9988 </r>
       <r>     1.3698     3.8363    12.1929 </r>
       <r>     1.4206     3.8314    12.3881 </r>
       <r>     1.4714     3.7530    12.5808 </r>
       <r>     1.5221     3.6395    12.7686 </r>
       <r>     1.5729     3.4908    12.9497 </r>
       <r>     1.6237     3.3071    13.1224 </r>
       <r>     1.6744     3.5271    13.2928 </r>
       <r>     1.7252     3.6321    13.4744 </r>
       <r>     1.7760     3.7722    13.6622 </r>
       <r>     1.8267     3.9473    13.8580 </r>
       <r>     1.8775     4.1576    14.0636 </r>
       <r>     1.9283     4.0085    14.3803 </r>
       <r>     1.9790     3.9695    14.5830 </r>
       <r>     2.0298     3.8995    14.7828 </r>
       <r>     2.0806     3.7985    14.9784 </r>
       <r>     2.1314     3.6282    15.1678 </r>
       <r>     2.1821     3.5511    15.3496 </r>
       <r>     2.2329     3.5513    15.5296 </r>
       <r>     2.2837     3.6195    15.7113 </r>
       <r>     2.3344     3.7557    15.8982 </r>
       <r>     2.3852     6.2597    16.1273 </r>
       <r>     2.4360     6.1402    16.4423 </r>
       <r>     2.4867     5.9805    16.7501 </r>
       <r>     2.5375     5.7807    17.0488 </r>
       <r>     2.5883     5.5408    17.3364 </r>
       <r>     2.6390     3.9150    17.6464 </r>
       <r>     2.6898     3.7076    17.8398 </r>
       <r>     2.7406     3.5222    18.0232 </r>
       <r>     2.7914     3.3589    18.1978 </r>
       <r>     2.8421     3.2175    18.3646 </r>
       <r>     2.8929     3.3422    18.5298 </r>
       <r>     2.9437     3.5686    18.7050 </r>
       <r>     2.9944     3.8353    18.8928 </r>
       <r>     3.0452     4.1425    19.0951 </r>
       <r>     3.0960     7.6581    19.3217 </r>
       <r>     3.1467     8.2727    19.7432 </r>
       <r>     3.1975     8.1341    20.1600 </r>
       <r>     3.2483     7.9258    20.5680 </r>
       <r>     3.2990     7.6478    20.9636 </r>
       <r>     3.3498     4.7041    21.4195 </r>
       <r>     3.4006     4.3804    21.6501 </r>
       <r>     3.4513     4.0605    21.8644 </r>
       <r>     3.5021     3.7442    22.0625 </r>
       <r>     3.5529     3.4318    22.2446 </r>
       <r>     3.6037     3.3517    22.4166 </r>
       <r>     3.6544     3.2902    22.5851 </r>
       <r>     3.7052     3.2489    22.7510 </r>
       <r>     3.7560     3.2278    22.9153 </r>
       <r>     3.8067     4.1642    23.0847 </r>
       <r>     3.8575     5.9576    23.3751 </r>
       <r>     3.9083     5.9786    23.6782 </r>
       <r>     3.9590     5.9861    23.9820 </r>
       <r>     4.0098     5.9801    24.2858 </r>
       <r>     4.0606     4.6087    24.7275 </r>
       <r>     4.1113     4.1383    24.9493 </r>
       <r>     4.1621     3.7131    25.1484 </r>
       <r>     4.2129     3.3332    25.3271 </r>
       <r>     4.2637     3.0066    25.4878 </r>
       <r>     4.3144     2.8662    25.6352 </r>
       <r>     4.3652     3.3357    25.7918 </r>
       <r>     4.4160     3.9348    25.9759 </r>
       <r>     4.4667     4.2329    26.1897 </r>
       <r>     4.5175     7.4603    26.4459 </r>
       <r>     4.5683     9.9103    26.8782 </r>
       <r>     4.6190     9.6034    27.3739 </r>
       <r>     4.6698     9.2319    27.8523 </r>
       <r>     4.7206     8.9920    28.3524 </r>
       <r>     4.7713     6.7863    28.8559 </r>
       <r>     4.8221     6.1903    29.2579 </r>
       <r>     4.8729     5.9004    29.5648 </r>
       <r>     4.9237     5.6172    29.8571 </r>
       <r>     4.9744     5.3407    30.1353 </r>
       <r>     5.0252     5.0708    30.3995 </r>
       <r>     5.0760     5.0092    30.6551 </r>
       <r>     5.1267     4.9650    30.9083 </r>
       <r>     5.1775     4.5685    31.1909 </r>
       <r>     5.2283     3.8027    31.4158 </r>
       <r>     5.2790     3.7699    31.6091 </r>
       <r>     5.3298     3.8188    31.8017 </r>
       <r>     5.3806    16.9837    32.0286 </r>
       <r>     5.4313     3.3070    32.4278 </r>
       <r>     5.4821     3.2389    32.5939 </r>
       <r>     5.5329     4.2833    32.8753 </r>
       <r>     5.5837     4.5899    33.1004 </r>
       <r>     5.6344     4.9471    33.3423 </r>
       <r>     5.6852     5.3452    33.6034 </r>
       <r>     5.7360     5.9214    33.8866 </r>
       <r>     5.7867     6.7844    34.2101 </r>
       <r>     5.8375     7.4284    34.5718 </r>
       <r>     5.8883     7.9079    34.9624 </r>
       <r>     5.9390     7.5608    35.3634 </r>
       <r>     5.9898     5.4226    35.7128 </r>
       <r>     6.0406     5.2096    35.9828 </r>
       <r>     6.0913     4.8918    36.2401 </r>
       <r>     6.1421     4.8142    36.5205 </r>
       <r>     6.1929     4.5375    36.7578 </r>
       <r>     6.2437     5.6984    37.1495 </r>
       <r>     6.2944     5.7316    37.4395 </r>
       <r>     6.3452     5.8038    37.7319 </r>
       <r>     6.3960     5.9910    38.0313 </r>
       <r>     6.4467     6.1928    38.3405 </r>
       <r>     6.4975     6.6043    38.6623 </r>
       <r>     6.5483     7.5326    39.0172 </r>
       <r>     6.5990     7.4715    39.4265 </r>
       <r>     6.6498     7.8297    39.8232 </r>
       <r>     6.7006     5.3765    40.1473 </r>
       <r>     6.7513     6.5968    40.4640 </r>
       <r>     6.8021     5.8660    40.7764 </r>
       <r>     6.8529     5.4820    41.0644 </r>
       <r>     6.9037     4.1753    41.4481 </r>
       <r>     6.9544     4.1807    41.6601 </r>
       <r>     7.0052     4.2152    41.8730 </r>
       <r>     7.0560     4.3051    42.0891 </r>
       <r>     7.1067     4.4505    42.3111 </r>
       <r>     7.1575     4.6822    42.5423 </r>
       <r>     7.2083     4.9377    42.7867 </r>
       <r>     7.2590     6.4073    43.0630 </r>
       <r>     7.3098     6.4491    43.4182 </r>
       <r>     7.3606     6.4142    43.7456 </r>
       <r>     7.4113     5.7772    44.0438 </r>
       <r>     7.4621     5.7221    44.3409 </r>
       <r>     7.5129     5.8500    44.6346 </r>
       <r>     7.5637     5.9961    44.9352 </r>
       <r>     7.6144     6.1602    45.2437 </r>
       <r>     7.6652     6.4987    45.6041 </r>
       <r>     7.7160     6.5378    45.9350 </r>
       <r>     7.7667     6.5271    46.2669 </r>
       <r>     7.8175     6.4497    46.5966 </r>
       <r>     7.8683     6.0661    46.9497 </r>
       <r>     7.9190     6.4285    47.2672 </r>
       <r>     7.9698     7.3975    47.6140 </r>
       <r>     8.0206     8.1856    48.0132 </r>
       <r>     8.0713     6.9619    48.4191 </r>
       <r>     8.1221     6.3823    48.7515 </r>
       <r>     8.1729     7.5776    49.0941 </r>
       <r>     8.2237     6.8024    49.5421 </r>
       <r>     8.2744     9.3118    50.0166 </r>
       <r>     8.3252     7.2340    50.5294 </r>
       <r>     8.3760     6.6545    50.8819 </r>
       <r>     8.4267     6.0997    51.2055 </r>
       <r>     8.4775     5.5692    51.5016 </r>
       <r>     8.5283     5.1238    51.7729 </r>
       <r>     8.5790     4.7009    52.0222 </r>
       <r>     8.6298     4.1732    52.2886 </r>
       <r>     8.6806     3.8361    52.5199 </r>
       <r>     8.7313     3.9523    52.7174 </r>
       <r>     8.7821     4.7919    52.9316 </r>
       <r>     8.8329     5.4912    53.1931 </r>
       <r>     8.8836     7.7500    53.5634 </r>
       <r>     8.9344     4.1437    53.9952 </r>
       <r>     8.9852     9.3334    54.2409 </r>
       <r>     9.0360     4.7009    54.7083 </r>
       <r>     9.0867     4.6854    54.9468 </r>
       <r>     9.1375     4.6222    55.1832 </r>
       <r>     9.1883     4.5311    55.4154 </r>
       <r>     9.2390     5.9175    55.7713 </r>
       <r>     9.2898     6.1856    56.0789 </r>
       <r>     9.3406     6.9943    56.4401 </r>
       <r>     9.3913     7.6090    56.8112 </r>
       <r>     9.4421     7.3623    57.2031 </r>
       <r>     9.4929     7.4068    57.5780 </r>
       <r>     9.5436     7.9301    57.9661 </r>
       <r>     9.5944     7.9129    58.3693 </r>
       <r>     9.6452     7.8096    58.7683 </r>
       <r>     9.6960     7.7238    59.1626 </r>
       <r>     9.7467     7.6791    59.6913 </r>
       <r>     9.7975     6.9738    60.0406 </r>
       <r>     9.8483     7.1617    60.4001 </r>
       <r>     9.8990     7.1822    60.7649 </r>
       <r>     9.9498     8.4248    61.2365 </r>
       <r>    10.0006     8.2767    61.6609 </r>
       <r>    10.0513     7.2015    62.0582 </r>
       <r>    10.1021     4.5390    62.3896 </r>
       <r>    10.1529     3.2936    62.5559 </r>
       <r>    10.2036     3.5229    62.7287 </r>
       <r>    10.2544     3.9168    62.9158 </r>
       <r>    10.3052     4.4397    63.1316 </r>
       <r>    10.3560     7.0011    63.4213 </r>
       <r>    10.4067     9.4758    63.8717 </r>
       <r>    10.4575    10.0834    64.3869 </r>
       <r>    10.5083     7.9620    64.8549 </r>
       <r>    10.5590     7.2861    65.2426 </r>
       <r>    10.6098     6.4639    65.5922 </r>
       <r>    10.6606     2.7957    65.8741 </r>
       <r>    10.7113     1.0935    65.9684 </r>
       <r>    10.7621     0.1491    65.9988 </r>
       <r>    10.8129     0.0000    66.0000 </r>
       <r>    10.8636     0.0000    66.0000 </r>
       <r>    10.9144     0.0000    66.0000 </r>
       <r>    10.9652     0.0000    66.0000 </r>
       <r>    11.0160     0.0000    66.0000 </r>
       <r>    11.0667     0.0000    66.0000 </r>
       <r>    11.1175     0.0000    66.0000 </r>
       <r>    11.1683     0.0000    66.0000 </r>
       <r>    11.2190     0.0000    66.0000 </r>
       <r>    11.2698     0.0000    66.0000 </r>
       <r>    11.3206     0.0000    66.0000 </r>
       <r>    11.3713     0.0000    66.0000 </r>
       <r>    11.4221     0.0000    66.0000 </r>
       <r>    11.4729     0.0000    66.0000 </r>
      </set>
     </set>
    </array>
   </total>
   <partial>
    <array>
     <dimension dim="1">gridpoints</dimension>
     <dimension dim="2">spin</dimension>
     <dimension dim="3">ion</dimension>
     <field>energy</field>
     <field>  s</field>
     <field> py</field>
     <field> pz</field>
     <field> px</field>
     <field>dxy</field>
     <field>dyz</field>
     <field>dz2</field>
     <field>dxz</field>
     <field>dx2</field>
     <set>
      <set comment="ion 1">
       <set comment="spin 1">
        <r>    -3.7579     0.0000     0.0000     0.0000     0.0000     0.0000     0.0000     0.0000     0.0000     0.0000 </r>
        <r>    -3.7071     0.0000     0.0000     0.0000     0.0000     0.0000     0.0000     0.0000     0.0000     0.0000 </r>
        <r>    -3.6563     0.0000     0.0000     0.0000     0.0000     0.0000     0.0000     0.0000     0.0000     0.0000 </r>
        <r>    -3.6056     0.0000     0.0000     0.0000     0.0000     0.0000     0.0000     0.0000     0.0000     0.0000 </r>
        <r>    -3.5548     0.0000     0.0000     0.0000     0.0000     0.0000     0.0000     0.0000     0.0000     0.0000 </r>
        <r>    -3.5040     0.0000     0.0000     0.0000     0.0000     0.0000     0.0000     0.0000     0.0000     0.0000 </r>
        <r>    -3.4533     0.0000     0.0000     0.0000     0.0000     0.0000     0.0000     0.0000     0.0000     0.0000 </r>
        <r>    -3.4025     0.0000     0.0000     0.0000     0.0000     0.0000     0.0000     0.0000     0.0000     0.0000 </r>
        <r>    -3.3517     0.0000     0.0000     0.0000     0.0000     0.0000     0.0000     0.0000     0.0000     0.0000 </r>
        <r>    -3.3009     0.0000     0.0000     0.0000     0.0000     0.0000     0.0000     0.0000     0.0000     0.0000 </r>
        <r>    -3.2502     0.0000     0.0000     0.0000     0.0000     0.0000     0.0000     0.0000     0.0000     0.0000 </r>
        <r>    -3.1994     0.0000     0.0000     0.0000     0.0000     0.0000     0.0000     0.0000     0.0000     0.0000 </r>
        <r>    -3.1486     0.0000     0.0000     0.0000     0.0000     0.0000     0.0000     0.0000     0.0000     0.0000 </r>
        <r>    -3.0979     0.0000     0.0000     0.0000     0.0000     0.0000     0.0000     0.0000     0.0000     0.0000 </r>
        <r>    -3.0471     0.0007     0.0000     0.0000     0.0000     0.0000     0.0000     0.0000     0.0000     0.0000 </r>
        <r>    -2.9963     0.0031     0.0000     0.0000     0.0000     0.0000     0.0000     0.0000     0.0000     0.0000 </r>
        <r>    -2.9456     0.0058     0.0000     0.0000     0.0000     0.0000     0.0000     0.0000     0.0000     0.0000 </r>
        <r>    -2.8948     0.0088     0.0001     0.0001     0.0001     0.0000     0.0000     0.0000     0.0000     0.0000 </r>
        <r>    -2.8440     0.0123     0.0001     0.0001     0.0001     0.0000     0.0000     0.0000     0.0000     0.0000 </r>
        <r>    -2.7933     0.0249     0.0003     0.0002     0.0003     0.0000     0.0000     0.0000     0.0000     0.0000 </r>
        <r>    -2.7425     0.0265     0.0003     0.0003     0.0003     0.0000     0.0000     0.0000     0.0000     0.0000 </r>
        <r>    -2.6917     0.0276     0.0003     0.0003     0.0003     0.0000     0.0000     0.0000     0.0000     0.0000 </r>
        <r>    -2.6409     0.0283     0.0004     0.0004     0.0004     0.0000     0.0000     0.0000     0.0000     0.0000 </r>
        <r>    -2.5902     0.0287     0.0004     0.0004     0.0004     0.0000     0.0000     0.0000     0.0000     0.0000 </r>
        <r>    -2.5394     0.0214     0.0003     0.0005     0.0003     0.0000     0.0000     0.0000     0.0000     0.0000 </r>
        <r>    -2.4886     0.0212     0.0003     0.0005     0.0003     0.0000     0.0000     0.0000     0.0000     0.0000 </r>
        <r>    -2.4379     0.0207     0.0003     0.0006     0.0003     0.0000     0.0000     0.0000     0.0000     0.0000 </r>
        <r>    -2.3871     0.0201     0.0003     0.0006     0.0003     0.0000     0.0000     0.0000     0.0000     0.0000 </r>
        <r>    -2.3363     0.0193     0.0003     0.0006     0.0003     0.0000     0.0000     0.0000     0.0000     0.0000 </r>
        <r>    -2.2856     0.0178     0.0003     0.0007     0.0003     0.0000     0.0000     0.0000     0.0000     0.0000 </r>
        <r>    -2.2348     0.0160     0.0002     0.0007     0.0002     0.0000     0.0000     0.0000     0.0000     0.0000 </r>
        <r>    -2.1840     0.0145     0.0002     0.0007     0.0002     0.0000     0.0000     0.0000     0.0000     0.0000 </r>
        <r>    -2.1333     0.0131     0.0002     0.0007     0.0002     0.0000     0.0000     0.0000     0.0000     0.0000 </r>
        <r>    -2.0825     0.0119     0.0002     0.0007     0.0002     0.0000     0.0000     0.0000     0.0000     0.0000 </r>
        <r>    -2.0317     0.0268     0.0008     0.0009     0.0009     0.0000     0.0000     0.0000     0.0000     0.0000 </r>
        <r>    -1.9810     0.0292     0.0009     0.0009     0.0010     0.0000     0.0000     0.0000     0.0000     0.0000 </r>
        <r>    -1.9302     0.0315     0.0010     0.0010     0.0011     0.0000     0.0000     0.0000     0.0000     0.0000 </r>
        <r>    -1.8794     0.0336     0.0011     0.0011     0.0013     0.0000     0.0000     0.0000     0.0000     0.0000 </r>
        <r>    -1.8286     0.0356     0.0012     0.0012     0.0014     0.0000     0.0000     0.0000     0.0000     0.0000 </r>
        <r>    -1.7779     0.0338     0.0011     0.0013     0.0014     0.0000     0.0000     0.0000     0.0000     0.0000 </r>
        <r>    -1.7271     0.0347     0.0011     0.0013     0.0015     0.0000     0.0000     0.0000     0.0000     0.0000 </r>
        <r>    -1.6763     0.0357     0.0012     0.0014     0.0015     0.0000     0.0000     0.0000     0.0000     0.0000 </r>
        <r>    -1.6256     0.0366     0.0012     0.0015     0.0016     0.0000     0.0000     0.0000     0.0000     0.0000 </r>
        <r>    -1.5748     0.0376     0.0012     0.0016     0.0017     0.0000     0.0000     0.0000     0.0000     0.0000 </r>
        <r>    -1.5240     0.0387     0.0012     0.0018     0.0017     0.0000     0.0000     0.0000     0.0000     0.0000 </r>
        <r>    -1.4733     0.0397     0.0012     0.0021     0.0017     0.0000     0.0000     0.0000     0.0000     0.0000 </r>
        <r>    -1.4225     0.0406     0.0012     0.0024     0.0017     0.0000     0.0000     0.0000     0.0000     0.0000 </r>
        <r>    -1.3717     0.0414     0.0011     0.0026     0.0017     0.0000     0.0000     0.0000     0.0000     0.0000 </r>
        <r>    -1.3210     0.0421     0.0011     0.0028     0.0017     0.0000     0.0000     0.0000     0.0000     0.0000 </r>
        <r>    -1.2702     0.0461     0.0011     0.0037     0.0018     0.0000     0.0000     0.0000     0.0000     0.0000 </r>
        <r>    -1.2194     0.0433     0.0011     0.0034     0.0018     0.0000     0.0000     0.0000     0.0000     0.0000 </r>
        <r>    -1.1686     0.0407     0.0011     0.0031     0.0018     0.0000     0.0000     0.0000     0.0000     0.0000 </r>
        <r>    -1.1179     0.0382     0.0010     0.0028     0.0018     0.0000     0.0000     0.0000     0.0000     0.0000 </r>
        <r>    -1.0671     0.0360     0.0010     0.0026     0.0018     0.0000     0.0000     0.0000     0.0000     0.0000 </r>
        <r>    -1.0163     0.0337     0.0019     0.0014     0.0023     0.0000     0.0000     0.0000     0.0000     0.0000 </r>
        <r>    -0.9656     0.0356     0.0023     0.0015     0.0025     0.0000     0.0000     0.0000     0.0000     0.0000 </r>
        <r>    -0.9148     0.0375     0.0028     0.0016     0.0027     0.0000     0.0000     0.0000     0.0000     0.0000 </r>
        <r>    -0.8640     0.0394     0.0033     0.0017     0.0030     0.0000     0.0000     0.0000     0.0000     0.0000 </r>
        <r>    -0.8133     0.0415     0.0039     0.0019     0.0032     0.0000     0.0000     0.0000     0.0000     0.0000 </r>
        <r>    -0.7625     0.0440     0.0044     0.0020     0.0035     0.0000     0.0000     0.0000     0.0000     0.0000 </r>
        <r>    -0.7117     0.0467     0.0049     0.0021     0.0038     0.0000     0.0000     0.0000     0.0000     0.0000 </r>
        <r>    -0.6610     0.0497     0.0054     0.0022     0.0042     0.0000     0.0000     0.0000     0.0000     0.0000 </r>
        <r>    -0.6102     0.0530     0.0059     0.0024     0.0045     0.0000     0.0000     0.0000     0.0000     0.0000 </r>
        <r>    -0.5594     0.0542     0.0047     0.0045     0.0039     0.0000     0.0000     0.0000     0.0000     0.0000 </r>
        <r>    -0.5086     0.0520     0.0045     0.0045     0.0038     0.0000     0.0000     0.0000     0.0000     0.0000 </r>
        <r>    -0.4579     0.0500     0.0043     0.0044     0.0036     0.0000     0.0000     0.0000     0.0000     0.0000 </r>
        <r>    -0.4071     0.0482     0.0041     0.0044     0.0035     0.0000     0.0000     0.0000     0.0000     0.0000 </r>
        <r>    -0.3563     0.0465     0.0038     0.0044     0.0034     0.0000     0.0000     0.0000     0.0000     0.0000 </r>
        <r>    -0.3056     0.0382     0.0032     0.0037     0.0030     0.0000     0.0000     0.0000     0.0000     0.0000 </r>
        <r>    -0.2548     0.0368     0.0029     0.0037     0.0028     0.0000     0.0000     0.0000     0.0000     0.0000 </r>
        <r>    -0.2040     0.0357     0.0026     0.0038     0.0028     0.0000     0.0000     0.0000     0.0000     0.0000 </r>
        <r>    -0.1533     0.0349     0.0023     0.0039     0.0027     0.0000     0.0000     0.0000     0.0000     0.0000 </r>
        <r>    -0.1025     0.0343     0.0020     0.0041     0.0026     0.0000     0.0000     0.0000     0.0000     0.0000 </r>
        <r>    -0.0517     0.0333     0.0018     0.0041     0.0025     0.0000     0.0000     0.0000     0.0000     0.0000 </r>
        <r>    -0.0010     0.0319     0.0017     0.0040     0.0025     0.0000     0.0000     0.0000     0.0000     0.0000 </r>
        <r>     0.0498     0.0306     0.0017     0.0040     0.0024     0.0000     0.0000     0.0000     0.0000     0.0000 </r>
        <r>     0.1006     0.0295     0.0016     0.0039     0.0024     0.0000     0.0000     0.0000     0.0000     0.0000 </r>
        <r>     0.1514     0.0286     0.0016     0.0038     0.0024     0.0000     0.0000     0.0000     0.0000     0.0000 </r>
        <r>     0.2021     0.0296     0.0026     0.0028     0.0034     0.0000     0.0000     0.0000     0.0000     0.0000 </r>
        <r>     0.2529     0.0299     0.0028     0.0026     0.0035     0.0000     0.0000     0.0000     0.0000     0.0000 </r>
        <r>     0.3037     0.0302     0.0030     0.0025     0.0037     0.0000     0.0000     0.0000     0.0000     0.0000 </r>
        <r>     0.3544     0.0305     0.0032     0.0024     0.0039     0.0000     0.0000     0.0000     0.0000     0.0000 </r>
        <r>     0.4052     0.0309     0.0034     0.0024     0.0040     0.0000     0.0000     0.0000     0.0000     0.0000 </r>
        <r>     0.4560     0.0397     0.0045     0.0042     0.0048     0.0000     0.0000     0.0000     0.0000     0.0000 </r>
        <r>     0.5067     0.0421     0.0052     0.0047     0.0052     0.0000     0.0000     0.0000     0.0000     0.0000 </r>
        <r>     0.5575     0.0443     0.0058     0.0051     0.0055     0.0000     0.0000     0.0000     0.0000     0.0000 </r>
        <r>     0.6083     0.0463     0.0065     0.0055     0.0058     0.0000     0.0000     0.0000     0.0000     0.0000 </r>
        <r>     0.6590     0.0482     0.0072     0.0059     0.0061     0.0000     0.0000     0.0000     0.0000     0.0000 </r>
        <r>     0.7098     0.0527     0.0081     0.0068     0.0068     0.0000     0.0000     0.0000     0.0000     0.0000 </r>
        <r>     0.7606     0.0570     0.0087     0.0077     0.0075     0.0000     0.0000     0.0000     0.0000     0.0000 </r>
        <r>     0.8114     0.0601     0.0090     0.0082     0.0079     0.0000     0.0000     0.0000     0.0000     0.0000 </r>
        <r>     0.8621     0.0620     0.0089     0.0086     0.0082     0.0000     0.0000     0.0000     0.0000     0.0000 </r>
        <r>     0.9129     0.0625     0.0073     0.0066     0.0088     0.0000     0.0000     0.0000     0.0000     0.0000 </r>
        <r>     0.9637     0.0592     0.0073     0.0063     0.0085     0.0000     0.0000     0.0000     0.0000     0.0000 </r>
        <r>     1.0144     0.0558     0.0073     0.0060     0.0082     0.0000     0.0000     0.0000     0.0000     0.0000 </r>
        <r>     1.0652     0.0525     0.0073     0.0057     0.0079     0.0000     0.0000     0.0000     0.0000     0.0000 </r>
        <r>     1.1160     0.0493     0.0073     0.0054     0.0076     0.0000     0.0000     0.0000     0.0000     0.0000 </r>
        <r>     1.1667     0.0446     0.0074     0.0048     0.0074     0.0000     0.0000     0.0000     0.0000     0.0000 </r>
        <r>     1.2175     0.0443     0.0072     0.0050     0.0074     0.0000     0.0000     0.0000     0.0000     0.0000 </r>
        <r>     1.2683     0.0443     0.0071     0.0053     0.0073     0.0000     0.0000     0.0000     0.0000     0.0000 </r>
        <r>     1.3190     0.0446     0.0070     0.0056     0.0074     0.0000     0.0000     0.0000     0.0000     0.0000 </r>
        <r>     1.3698     0.0451     0.0069     0.0059     0.0075     0.0000     0.0000     0.0000     0.0000     0.0000 </r>
        <r>     1.4206     0.0454     0.0068     0.0063     0.0075     0.0000     0.0000     0.0000     0.0000     0.0000 </r>
        <r>     1.4714     0.0449     0.0065     0.0065     0.0074     0.0000     0.0000     0.0000     0.0000     0.0000 </r>
        <r>     1.5221     0.0439     0.0061     0.0066     0.0073     0.0000     0.0000     0.0000     0.0000     0.0000 </r>
        <r>     1.5729     0.0425     0.0057     0.0067     0.0071     0.0000     0.0000     0.0000     0.0000     0.0000 </r>
        <r>     1.6237     0.0406     0.0053     0.0067     0.0068     0.0000     0.0000     0.0000     0.0000     0.0000 </r>
        <r>     1.6744     0.0368     0.0065     0.0074     0.0062     0.0000     0.0000     0.0000     0.0000     0.0000 </r>
        <r>     1.7252     0.0372     0.0066     0.0080     0.0061     0.0000     0.0000     0.0000     0.0000     0.0000 </r>
        <r>     1.7760     0.0378     0.0067     0.0087     0.0060     0.0000     0.0000     0.0000     0.0000     0.0000 </r>
        <r>     1.8267     0.0387     0.0070     0.0095     0.0059     0.0000     0.0000     0.0000     0.0000     0.0000 </r>
        <r>     1.8775     0.0398     0.0073     0.0103     0.0059     0.0000     0.0000     0.0000     0.0000     0.0000 </r>
        <r>     1.9283     0.0382     0.0073     0.0095     0.0061     0.0000     0.0000     0.0000     0.0000     0.0000 </r>
        <r>     1.9790     0.0375     0.0074     0.0094     0.0060     0.0000     0.0000     0.0000     0.0000     0.0000 </r>
        <r>     2.0298     0.0367     0.0073     0.0093     0.0060     0.0000     0.0000     0.0000     0.0000     0.0000 </r>
        <r>     2.0806     0.0357     0.0072     0.0090     0.0060     0.0000     0.0000     0.0000     0.0000     0.0000 </r>
        <r>     2.1314     0.0342     0.0070     0.0085     0.0059     0.0000     0.0000     0.0000     0.0000     0.0000 </r>
        <r>     2.1821     0.0332     0.0072     0.0081     0.0061     0.0000     0.0000     0.0000     0.0000     0.0000 </r>
        <r>     2.2329     0.0329     0.0076     0.0078     0.0064     0.0000     0.0000     0.0000     0.0000     0.0000 </r>
        <r>     2.2837     0.0332     0.0080     0.0078     0.0067     0.0000     0.0000     0.0000     0.0000     0.0000 </r>
        <r>     2.3344     0.0341     0.0086     0.0079     0.0071     0.0000     0.0000     0.0000     0.0000     0.0000 </r>
        <r>     2.3852     0.0606     0.0147     0.0121     0.0137     0.0000     0.0000     0.0000     0.0000     0.0000 </r>
        <r>     2.4360     0.0600     0.0142     0.0122     0.0137     0.0000     0.0000     0.0000     0.0000     0.0000 </r>
        <r>     2.4867     0.0590     0.0137     0.0122     0.0136     0.0000     0.0000     0.0000     0.0000     0.0000 </r>
[...]
        <r>  0.0074  0.0034  0.0022  0.0031  0.0000  0.0000  0.0000  0.0000  0.0000 </r>
        <r>  0.0074  0.0033  0.0022  0.0033  0.0000  0.0000  0.0000  0.0000  0.0000 </r>
        <r>  0.0073  0.0033  0.0022  0.0032  0.0000  0.0000  0.0000  0.0000  0.0000 </r>
        <r>  0.0072  0.0034  0.0022  0.0030  0.0000  0.0000  0.0000  0.0000  0.0000 </r>
        <r>  0.0074  0.0032  0.0022  0.0033  0.0000  0.0000  0.0000  0.0000  0.0000 </r>
        <r>  0.0074  0.0034  0.0022  0.0030  0.0000  0.0000  0.0000  0.0000  0.0000 </r>
        <r>  0.0073  0.0034  0.0022  0.0031  0.0000  0.0000  0.0000  0.0000  0.0000 </r>
       </set>
       <set comment="band 22">
        <r>  0.0073  0.0030  0.0022  0.0034  0.0000  0.0000  0.0000  0.0000  0.0000 </r>
        <r>  0.0073  0.0031  0.0022  0.0034  0.0000  0.0000  0.0000  0.0000  0.0000 </r>
        <r>  0.0072  0.0032  0.0022  0.0032  0.0000  0.0000  0.0000  0.0000  0.0000 </r>
        <r>  0.0073  0.0030  0.0022  0.0034  0.0000  0.0000  0.0000  0.0000  0.0000 </r>
        <r>  0.0073  0.0033  0.0022  0.0032  0.0000  0.0000  0.0000  0.0000  0.0000 </r>
        <r>  0.0072  0.0032  0.0022  0.0032  0.0000  0.0000  0.0000  0.0000  0.0000 </r>
        <r>  0.0072  0.0030  0.0022  0.0035  0.0000  0.0000  0.0000  0.0000  0.0000 </r>
        <r>  0.0074  0.0032  0.0022  0.0032  0.0000  0.0000  0.0000  0.0000  0.0000 </r>
        <r>  0.0074  0.0033  0.0022  0.0032  0.0000  0.0000  0.0000  0.0000  0.0000 </r>
        <r>  0.0073  0.0033  0.0022  0.0032  0.0000  0.0000  0.0000  0.0000  0.0000 </r>
        <r>  0.0072  0.0031  0.0022  0.0034  0.0000  0.0000  0.0000  0.0000  0.0000 </r>
        <r>  0.0073  0.0033  0.0022  0.0032  0.0000  0.0000  0.0000  0.0000  0.0000 </r>
        <r>  0.0074  0.0031  0.0022  0.0034  0.0000  0.0000  0.0000  0.0000  0.0000 </r>
        <r>  0.0072  0.0031  0.0022  0.0034  0.0000  0.0000  0.0000  0.0000  0.0000 </r>
        <r>  0.0074  0.0033  0.0022  0.0033  0.0000  0.0000  0.0000  0.0000  0.0000 </r>
        <r>  0.0074  0.0031  0.0022  0.0034  0.0000  0.0000  0.0000  0.0000  0.0000 </r>
       </set>
       <set comment="band 23">
        <r>  0.0077  0.0036  0.0011  0.0036  0.0000  0.0000  0.0000  0.0000  0.0000 </r>
        <r>  0.0077  0.0038  0.0011  0.0034  0.0000  0.0000  0.0000  0.0000  0.0000 </r>
        <r>  0.0077  0.0034  0.0011  0.0038  0.0000  0.0000  0.0000  0.0000  0.0000 </r>
        <r>  0.0077  0.0036  0.0011  0.0036  0.0000  0.0000  0.0000  0.0000  0.0000 </r>
        <r>  0.0077  0.0036  0.0011  0.0036  0.0000  0.0000  0.0000  0.0000  0.0000 </r>
        <r>  0.0076  0.0034  0.0011  0.0038  0.0000  0.0000  0.0000  0.0000  0.0000 </r>
        <r>  0.0077  0.0038  0.0011  0.0034  0.0000  0.0000  0.0000  0.0000  0.0000 </r>
        <r>  0.0077  0.0036  0.0011  0.0036  0.0000  0.0000  0.0000  0.0000  0.0000 </r>
        <r>  0.0077  0.0036  0.0011  0.0036  0.0000  0.0000  0.0000  0.0000  0.0000 </r>
        <r>  0.0077  0.0034  0.0011  0.0038  0.0000  0.0000  0.0000  0.0000  0.0000 </r>
        <r>  0.0076  0.0038  0.0011  0.0034  0.0000  0.0000  0.0000  0.0000  0.0000 </r>
        <r>  0.0076  0.0036  0.0011  0.0036  0.0000  0.0000  0.0000  0.0000  0.0000 </r>
        <r>  0.0077  0.0036  0.0011  0.0036  0.0000  0.0000  0.0000  0.0000  0.0000 </r>
        <r>  0.0076  0.0038  0.0011  0.0034  0.0000  0.0000  0.0000  0.0000  0.0000 </r>
        <r>  0.0076  0.0034  0.0011  0.0038  0.0000  0.0000  0.0000  0.0000  0.0000 </r>
        <r>  0.0076  0.0036  0.0011  0.0036  0.0000  0.0000  0.0000  0.0000  0.0000 </r>
       </set>
       <set comment="band 24">
        <r>  0.0065  0.0035  0.0023  0.0035  0.0000  0.0000  0.0000  0.0000  0.0000 </r>
        <r>  0.0127  0.0052  0.0045  0.0052  0.0000  0.0000  0.0000  0.0000  0.0000 </r>
        <r>  0.0000  0.0017  0.0000  0.0017  0.0000  0.0000  0.0000  0.0000  0.0000 </r>
        <r>  0.0065  0.0035  0.0023  0.0035  0.0000  0.0000  0.0000  0.0000  0.0000 </r>
        <r>  0.0062  0.0034  0.0022  0.0034  0.0000  0.0000  0.0000  0.0000  0.0000 </r>
        <r>  0.0000  0.0016  0.0000  0.0017  0.0000  0.0000  0.0000  0.0000  0.0000 </r>
        <r>  0.0128  0.0053  0.0045  0.0053  0.0000  0.0000  0.0000  0.0000  0.0000 </r>
        <r>  0.0062  0.0034  0.0022  0.0034  0.0000  0.0000  0.0000  0.0000  0.0000 </r>
        <r>  0.0063  0.0034  0.0022  0.0034  0.0000  0.0000  0.0000  0.0000  0.0000 </r>
        <r>  0.0000  0.0017  0.0000  0.0017  0.0000  0.0000  0.0000  0.0000  0.0000 </r>
        <r>  0.0127  0.0052  0.0045  0.0052  0.0000  0.0000  0.0000  0.0000  0.0000 </r>
        <r>  0.0062  0.0034  0.0022  0.0034  0.0000  0.0000  0.0000  0.0000  0.0000 </r>
        <r>  0.0065  0.0035  0.0023  0.0035  0.0000  0.0000  0.0000  0.0000  0.0000 </r>
        <r>  0.0128  0.0053  0.0045  0.0052  0.0000  0.0000  0.0000  0.0000  0.0000 </r>
        <r>  0.0000  0.0017  0.0000  0.0017  0.0000  0.0000  0.0000  0.0000  0.0000 </r>
        <r>  0.0065  0.0035  0.0023  0.0035  0.0000  0.0000  0.0000  0.0000  0.0000 </r>
       </set>
       <set comment="band 25">
        <r>  0.0062  0.0034  0.0022  0.0034  0.0000  0.0000  0.0000  0.0000  0.0000 </r>
        <r>  0.0000  0.0017  0.0000  0.0017  0.0000  0.0000  0.0000  0.0000  0.0000 </r>
        <r>  0.0128  0.0053  0.0045  0.0053  0.0000  0.0000  0.0000  0.0000  0.0000 </r>
        <r>  0.0062  0.0034  0.0022  0.0034  0.0000  0.0000  0.0000  0.0000  0.0000 </r>
        <r>  0.0066  0.0035  0.0023  0.0035  0.0000  0.0000  0.0000  0.0000  0.0000 </r>
        <r>  0.0127  0.0052  0.0045  0.0052  0.0000  0.0000  0.0000  0.0000  0.0000 </r>
        <r>  0.0000  0.0017  0.0000  0.0017  0.0000  0.0000  0.0000  0.0000  0.0000 </r>
        <r>  0.0066  0.0035  0.0023  0.0035  0.0000  0.0000  0.0000  0.0000  0.0000 </r>
        <r>  0.0065  0.0035  0.0023  0.0035  0.0000  0.0000  0.0000  0.0000  0.0000 </r>
        <r>  0.0126  0.0052  0.0045  0.0053  0.0000  0.0000  0.0000  0.0000  0.0000 </r>
        <r>  0.0000  0.0016  0.0000  0.0017  0.0000  0.0000  0.0000  0.0000  0.0000 </r>
        <r>  0.0066  0.0035  0.0023  0.0035  0.0000  0.0000  0.0000  0.0000  0.0000 </r>
        <r>  0.0062  0.0034  0.0022  0.0034  0.0000  0.0000  0.0000  0.0000  0.0000 </r>
        <r>  0.0000  0.0016  0.0000  0.0017  0.0000  0.0000  0.0000  0.0000  0.0000 </r>
        <r>  0.0127  0.0052  0.0045  0.0052  0.0000  0.0000  0.0000  0.0000  0.0000 </r>
        <r>  0.0062  0.0034  0.0022  0.0034  0.0000  0.0000  0.0000  0.0000  0.0000 </r>
       </set>
       <set comment="band 26">
        <r>  0.0065  0.0033  0.0023  0.0033  0.0000  0.0000  0.0000  0.0000  0.0000 </r>
        <r>  0.0065  0.0033  0.0024  0.0033  0.0000  0.0000  0.0000  0.0000  0.0000 </r>
        <r>  0.0065  0.0033  0.0023  0.0033  0.0000  0.0000  0.0000  0.0000  0.0000 </r>
        <r>  0.0064  0.0033  0.0023  0.0033  0.0000  0.0000  0.0000  0.0000  0.0000 </r>
        <r>  0.0065  0.0033  0.0023  0.0033  0.0000  0.0000  0.0000  0.0000  0.0000 </r>
        <r>  0.0064  0.0033  0.0023  0.0033  0.0000  0.0000  0.0000  0.0000  0.0000 </r>
        <r>  0.0065  0.0033  0.0024  0.0033  0.0000  0.0000  0.0000  0.0000  0.0000 </r>
        <r>  0.0065  0.0033  0.0024  0.0033  0.0000  0.0000  0.0000  0.0000  0.0000 </r>
        <r>  0.0065  0.0033  0.0023  0.0033  0.0000  0.0000  0.0000  0.0000  0.0000 </r>
        <r>  0.0065  0.0033  0.0023  0.0033  0.0000  0.0000  0.0000  0.0000  0.0000 </r>
        <r>  0.0065  0.0033  0.0023  0.0033  0.0000  0.0000  0.0000  0.0000  0.0000 </r>
        <r>  0.0064  0.0033  0.0023  0.0033  0.0000  0.0000  0.0000  0.0000  0.0000 </r>
        <r>  0.0065  0.0033  0.0023  0.0033  0.0000  0.0000  0.0000  0.0000  0.0000 </r>
        <r>  0.0065  0.0033  0.0024  0.0033  0.0000  0.0000  0.0000  0.0000  0.0000 </r>
        <r>  0.0064  0.0033  0.0023  0.0033  0.0000  0.0000  0.0000  0.0000  0.0000 </r>
        <r>  0.0065  0.0033  0.0023  0.0033  0.0000  0.0000  0.0000  0.0000  0.0000 </r>
       </set>
       <set comment="band 27">
        <r>  0.0053  0.0045  0.0008  0.0044  0.0000  0.0000  0.0000  0.0000  0.0000 </r>
        <r>  0.0105  0.0003  0.0016  0.0003  0.0000  0.0000  0.0000  0.0000  0.0000 </r>
        <r>  0.0000  0.0086  0.0000  0.0086  0.0000  0.0000  0.0000  0.0000  0.0000 </r>
        <r>  0.0054  0.0044  0.0008  0.0044  0.0000  0.0000  0.0000  0.0000  0.0000 </r>
        <r>  0.0051  0.0046  0.0008  0.0045  0.0000  0.0000  0.0000  0.0000  0.0000 </r>
        <r>  0.0000  0.0087  0.0000  0.0086  0.0000  0.0000  0.0000  0.0000  0.0000 </r>
        <r>  0.0105  0.0003  0.0017  0.0003  0.0000  0.0000  0.0000  0.0000  0.0000 </r>
        <r>  0.0052  0.0045  0.0008  0.0046  0.0000  0.0000  0.0000  0.0000  0.0000 </r>
        <r>  0.0052  0.0045  0.0008  0.0045  0.0000  0.0000  0.0000  0.0000  0.0000 </r>
        <r>  0.0000  0.0086  0.0000  0.0086  0.0000  0.0000  0.0000  0.0000  0.0000 </r>
        <r>  0.0105  0.0003  0.0017  0.0003  0.0000  0.0000  0.0000  0.0000  0.0000 </r>
        <r>  0.0052  0.0045  0.0008  0.0046  0.0000  0.0000  0.0000  0.0000  0.0000 </r>
        <r>  0.0054  0.0044  0.0008  0.0044  0.0000  0.0000  0.0000  0.0000  0.0000 </r>
        <r>  0.0105  0.0003  0.0017  0.0003  0.0000  0.0000  0.0000  0.0000  0.0000 </r>
        <r>  0.0000  0.0086  0.0000  0.0086  0.0000  0.0000  0.0000  0.0000  0.0000 </r>
        <r>  0.0054  0.0043  0.0008  0.0043  0.0000  0.0000  0.0000  0.0000  0.0000 </r>
       </set>
       <set comment="band 28">
        <r>  0.0052  0.0044  0.0008  0.0045  0.0000  0.0000  0.0000  0.0000  0.0000 </r>
        <r>  0.0000  0.0086  0.0000  0.0086  0.0000  0.0000  0.0000  0.0000  0.0000 </r>
        <r>  0.0105  0.0003  0.0017  0.0003  0.0000  0.0000  0.0000  0.0000  0.0000 </r>
        <r>  0.0052  0.0046  0.0008  0.0046  0.0000  0.0000  0.0000  0.0000  0.0000 </r>
        <r>  0.0054  0.0043  0.0009  0.0043  0.0000  0.0000  0.0000  0.0000  0.0000 </r>
        <r>  0.0106  0.0003  0.0017  0.0003  0.0000  0.0000  0.0000  0.0000  0.0000 </r>
        <r>  0.0000  0.0087  0.0000  0.0086  0.0000  0.0000  0.0000  0.0000  0.0000 </r>
        <r>  0.0053  0.0044  0.0009  0.0043  0.0000  0.0000  0.0000  0.0000  0.0000 </r>
        <r>  0.0054  0.0044  0.0008  0.0044  0.0000  0.0000  0.0000  0.0000  0.0000 </r>
        <r>  0.0106  0.0003  0.0017  0.0003  0.0000  0.0000  0.0000  0.0000  0.0000 </r>
        <r>  0.0000  0.0087  0.0000  0.0086  0.0000  0.0000  0.0000  0.0000  0.0000 </r>
        <r>  0.0054  0.0044  0.0009  0.0043  0.0000  0.0000  0.0000  0.0000  0.0000 </r>
        <r>  0.0051  0.0045  0.0008  0.0045  0.0000  0.0000  0.0000  0.0000  0.0000 </r>
        <r>  0.0000  0.0086  0.0000  0.0086  0.0000  0.0000  0.0000  0.0000  0.0000 </r>
        <r>  0.0105  0.0003  0.0016  0.0003  0.0000  0.0000  0.0000  0.0000  0.0000 </r>
        <r>  0.0051  0.0045  0.0008  0.0045  0.0000  0.0000  0.0000  0.0000  0.0000 </r>
       </set>
       <set comment="band 29">
        <r>  0.0045  0.0043  0.0018  0.0041  0.0000  0.0000  0.0000  0.0000  0.0000 </r>
        <r>  0.0089  0.0004  0.0036  0.0002  0.0000  0.0000  0.0000  0.0000  0.0000 </r>
        <r>  0.0000  0.0081  0.0000  0.0079  0.0000  0.0000  0.0000  0.0000  0.0000 </r>
        <r>  0.0045  0.0041  0.0019  0.0040  0.0000  0.0000  0.0000  0.0000  0.0000 </r>
        <r>  0.0044  0.0042  0.0018  0.0040  0.0000  0.0000  0.0000  0.0000  0.0000 </r>
        <r>  0.0000  0.0081  0.0000  0.0079  0.0000  0.0000  0.0000  0.0000  0.0000 </r>
        <r>  0.0090  0.0004  0.0037  0.0002  0.0000  0.0000  0.0000  0.0000  0.0000 </r>
        <r>  0.0045  0.0042  0.0018  0.0040  0.0000  0.0000  0.0000  0.0000  0.0000 </r>
        <r>  0.0044  0.0042  0.0018  0.0040  0.0000  0.0000  0.0000  0.0000  0.0000 </r>
        <r>  0.0000  0.0080  0.0000  0.0079  0.0000  0.0000  0.0000  0.0000  0.0000 </r>
        <r>  0.0090  0.0004  0.0037  0.0002  0.0000  0.0000  0.0000  0.0000  0.0000 </r>
        <r>  0.0045  0.0042  0.0018  0.0041  0.0000  0.0000  0.0000  0.0000  0.0000 </r>
        <r>  0.0045  0.0042  0.0019  0.0040  0.0000  0.0000  0.0000  0.0000  0.0000 </r>
        <r>  0.0090  0.0003  0.0037  0.0002  0.0000  0.0000  0.0000  0.0000  0.0000 </r>
        <r>  0.0000  0.0080  0.0000  0.0078  0.0000  0.0000  0.0000  0.0000  0.0000 </r>
        <r>  0.0045  0.0041  0.0018  0.0039  0.0000  0.0000  0.0000  0.0000  0.0000 </r>
       </set>
       <set comment="band 30">
        <r>  0.0045  0.0040  0.0019  0.0042  0.0000  0.0000  0.0000  0.0000  0.0000 </r>
        <r>  0.0000  0.0078  0.0000  0.0080  0.0000  0.0000  0.0000  0.0000  0.0000 </r>
        <r>  0.0090  0.0002  0.0037  0.0004  0.0000  0.0000  0.0000  0.0000  0.0000 </r>
        <r>  0.0045  0.0041  0.0018  0.0042  0.0000  0.0000  0.0000  0.0000  0.0000 </r>
        <r>  0.0046  0.0040  0.0019  0.0042  0.0000  0.0000  0.0000  0.0000  0.0000 </r>
        <r>  0.0090  0.0002  0.0038  0.0004  0.0000  0.0000  0.0000  0.0000  0.0000 </r>
        <r>  0.0000  0.0078  0.0000  0.0080  0.0000  0.0000  0.0000  0.0000  0.0000 </r>
        <r>  0.0045  0.0040  0.0019  0.0042  0.0000  0.0000  0.0000  0.0000  0.0000 </r>
        <r>  0.0045  0.0040  0.0018  0.0042  0.0000  0.0000  0.0000  0.0000  0.0000 </r>
        <r>  0.0090  0.0002  0.0037  0.0004  0.0000  0.0000  0.0000  0.0000  0.0000 </r>
        <r>  0.0000  0.0078  0.0000  0.0080  0.0000  0.0000  0.0000  0.0000  0.0000 </r>
        <r>  0.0045  0.0040  0.0019  0.0042  0.0000  0.0000  0.0000  0.0000  0.0000 </r>
        <r>  0.0045  0.0041  0.0018  0.0042  0.0000  0.0000  0.0000  0.0000  0.0000 </r>
        <r>  0.0000  0.0079  0.0000  0.0081  0.0000  0.0000  0.0000  0.0000  0.0000 </r>
        <r>  0.0090  0.0002  0.0037  0.0003  0.0000  0.0000  0.0000  0.0000  0.0000 </r>
        <r>  0.0045  0.0041  0.0018  0.0042  0.0000  0.0000  0.0000  0.0000  0.0000 </r>
       </set>
       <set comment="band 31">
        <r>  0.0037  0.0050  0.0006  0.0048  0.0000  0.0000  0.0000  0.0000  0.0000 </r>
        <r>  0.0038  0.0050  0.0007  0.0047  0.0000  0.0000  0.0000  0.0000  0.0000 </r>
        <r>  0.0035  0.0051  0.0006  0.0048  0.0000  0.0000  0.0000  0.0000  0.0000 </r>
        <r>  0.0036  0.0052  0.0006  0.0047  0.0000  0.0000  0.0000  0.0000  0.0000 </r>
        <r>  0.0034  0.0048  0.0005  0.0051  0.0000  0.0000  0.0000  0.0000  0.0000 </r>
        <r>  0.0034  0.0048  0.0006  0.0050  0.0000  0.0000  0.0000  0.0000  0.0000 </r>
        <r>  0.0032  0.0050  0.0005  0.0052  0.0000  0.0000  0.0000  0.0000  0.0000 </r>
        <r>  0.0033  0.0051  0.0005  0.0051  0.0000  0.0000  0.0000  0.0000  0.0000 </r>
        <r>  0.0037  0.0050  0.0006  0.0048  0.0000  0.0000  0.0000  0.0000  0.0000 </r>
        <r>  0.0037  0.0050  0.0006  0.0047  0.0000  0.0000  0.0000  0.0000  0.0000 </r>
        <r>  0.0037  0.0049  0.0006  0.0048  0.0000  0.0000  0.0000  0.0000  0.0000 </r>
        <r>  0.0038  0.0049  0.0006  0.0047  0.0000  0.0000  0.0000  0.0000  0.0000 </r>
        <r>  0.0034  0.0049  0.0005  0.0052  0.0000  0.0000  0.0000  0.0000  0.0000 </r>
        <r>  0.0034  0.0049  0.0006  0.0050  0.0000  0.0000  0.0000  0.0000  0.0000 </r>
        <r>  0.0034  0.0047  0.0005  0.0051  0.0000  0.0000  0.0000  0.0000  0.0000 </r>
        <r>  0.0035  0.0049  0.0006  0.0051  0.0000  0.0000  0.0000  0.0000  0.0000 </r>
       </set>
       <set comment="band 32">
        <r>  0.0097  0.0046  0.0044  0.0015  0.0000  0.0000  0.0000  0.0000  0.0000 </r>
        <r>  0.0012  0.0051  0.0005  0.0020  0.0000  0.0000  0.0000  0.0000  0.0000 </r>
        <r>  0.0011  0.0051  0.0005  0.0020  0.0000  0.0000  0.0000  0.0000  0.0000 </r>
        <r>  0.0097  0.0046  0.0044  0.0015  0.0000  0.0000  0.0000  0.0000  0.0000 </r>
        <r>  0.0096  0.0047  0.0044  0.0014  0.0000  0.0000  0.0000  0.0000  0.0000 </r>
        <r>  0.0012  0.0050  0.0005  0.0019  0.0000  0.0000  0.0000  0.0000  0.0000 </r>
        <r>  0.0012  0.0051  0.0005  0.0019  0.0000  0.0000  0.0000  0.0000  0.0000 </r>
        <r>  0.0096  0.0046  0.0044  0.0014  0.0000  0.0000  0.0000  0.0000  0.0000 </r>
        <r>  0.0093  0.0043  0.0043  0.0015  0.0000  0.0000  0.0000  0.0000  0.0000 </r>
        <r>  0.0010  0.0048  0.0005  0.0020  0.0000  0.0000  0.0000  0.0000  0.0000 </r>
        <r>  0.0011  0.0048  0.0005  0.0019  0.0000  0.0000  0.0000  0.0000  0.0000 </r>
        <r>  0.0093  0.0043  0.0043  0.0016  0.0000  0.0000  0.0000  0.0000  0.0000 </r>
        <r>  0.0092  0.0044  0.0043  0.0015  0.0000  0.0000  0.0000  0.0000  0.0000 </r>
        <r>  0.0010  0.0048  0.0005  0.0019  0.0000  0.0000  0.0000  0.0000  0.0000 </r>
        <r>  0.0011  0.0048  0.0005  0.0019  0.0000  0.0000  0.0000  0.0000  0.0000 </r>
        <r>  0.0092  0.0043  0.0042  0.0015  0.0000  0.0000  0.0000  0.0000  0.0000 </r>
       </set>
       <set comment="band 33">
        <r>  0.0014  0.0019  0.0006  0.0051  0.0000  0.0000  0.0000  0.0000  0.0000 </r>
        <r>  0.0087  0.0016  0.0041  0.0042  0.0000  0.0000  0.0000  0.0000  0.0000 </r>
        <r>  0.0098  0.0015  0.0044  0.0047  0.0000  0.0000  0.0000  0.0000  0.0000 </r>
        <r>  0.0010  0.0018  0.0005  0.0045  0.0000  0.0000  0.0000  0.0000  0.0000 </r>
        <r>  0.0010  0.0019  0.0005  0.0047  0.0000  0.0000  0.0000  0.0000  0.0000 </r>
        <r>  0.0100  0.0014  0.0045  0.0050  0.0000  0.0000  0.0000  0.0000  0.0000 </r>
        <r>  0.0094  0.0015  0.0043  0.0042  0.0000  0.0000  0.0000  0.0000  0.0000 </r>
        <r>  0.0013  0.0020  0.0005  0.0055  0.0000  0.0000  0.0000  0.0000  0.0000 </r>
        <r>  0.0014  0.0020  0.0006  0.0051  0.0000  0.0000  0.0000  0.0000  0.0000 </r>
        <r>  0.0088  0.0016  0.0042  0.0041  0.0000  0.0000  0.0000  0.0000  0.0000 </r>
        <r>  0.0097  0.0015  0.0044  0.0047  0.0000  0.0000  0.0000  0.0000  0.0000 </r>
        <r>  0.0010  0.0018  0.0004  0.0045  0.0000  0.0000  0.0000  0.0000  0.0000 </r>
        <r>  0.0009  0.0019  0.0004  0.0047  0.0000  0.0000  0.0000  0.0000  0.0000 </r>
        <r>  0.0102  0.0014  0.0046  0.0049  0.0000  0.0000  0.0000  0.0000  0.0000 </r>
        <r>  0.0093  0.0015  0.0043  0.0043  0.0000  0.0000  0.0000  0.0000  0.0000 </r>
        <r>  0.0012  0.0020  0.0005  0.0054  0.0000  0.0000  0.0000  0.0000  0.0000 </r>
       </set>
      </set>
     </set>
    </set>
   </array>
  </projected>
 </calculation>
 <structure name="finalpos" >
  <crystal>
   <varray name="basis" >
    <v>       8.07786000       0.00000000       0.00000000 </v>
    <v>       0.00000000       8.07786000       0.00000000 </v>
    <v>       0.00000000       0.00000000       4.03893000 </v>
   </varray>
   <i name="volume">    263.54754216 </i>
   <varray name="rec_basis" >
    <v>       0.12379516       0.00000000       0.00000000 </v>
    <v>       0.00000000       0.12379516       0.00000000 </v>
    <v>       0.00000000       0.00000000       0.24759033 </v>
   </varray>
  </crystal>
  <varray name="positions" >
   <v>       0.99876200       0.00000000       0.00000000 </v>
   <v>       0.00000000       0.25000000       0.50000000 </v>
   <v>       0.25000000       0.00000000       0.50000000 </v>
   <v>       0.25000000       0.25000000       0.00000000 </v>
   <v>       0.00000000       0.50000000       0.00000000 </v>
   <v>       0.00000000       0.75000000       0.50000000 </v>
   <v>       0.25000000       0.50000000       0.50000000 </v>
   <v>       0.25000000       0.75000000       0.00000000 </v>
   <v>       0.50000000       0.00000000       0.00000000 </v>
   <v>       0.50000000       0.25000000       0.50000000 </v>
   <v>       0.75000000       0.00000000       0.50000000 </v>
   <v>       0.75000000       0.25000000       0.00000000 </v>
   <v>       0.50000000       0.50000000       0.00000000 </v>
   <v>       0.50000000       0.75000000       0.50000000 </v>
   <v>       0.75000000       0.50000000       0.50000000 </v>
   <v>       0.75000000       0.75000000       0.00000000 </v>
  </varray>
 </structure>
</modeling>
