unknown system                          
   1.0000000000000000     
    -2.019739    0.000000    2.019739
     0.000000    2.019739    2.019739
    -2.019739    2.019739    0.000000
   Al
     1
Direct
  0.000000  0.000000  0.000000

   32   32   32
 -.13885546525E+00 -.59638449884E-01 0.17239593242E+00 0.53944715172E+00 0.10100640295E+01
 0.15399810537E+01 0.20769412962E+01 0.25688045598E+01 0.29726561946E+01 0.32624593166E+01
 0.34332856393E+01 0.35008150601E+01 0.34958535287E+01 0.34520602000E+01 0.33973953371E+01
 0.33547401846E+01 0.33388411111E+01 0.33547401846E+01 0.33973953371E+01 0.34520602000E+01
 0.34958535287E+01 0.35008150601E+01 0.34332856393E+01 0.32624593166E+01 0.29726561946E+01
 0.25688045598E+01 0.20769412962E+01 0.15399810537E+01 0.10100640295E+01 0.53944715172E+00
 0.17239593242E+00 -.59638449884E-01 -.59638449884E-01 0.96004689946E-01 0.39564281157E+00
 0.81460100609E+00 0.13147185542E+01 0.18472202840E+01 0.23593733644E+01 0.28032921212E+01
 0.31444446694E+01 0.33676659106E+01 0.34790320469E+01 0.35027847968E+01 0.34728467084E+01
 0.34193753443E+01 0.33678506276E+01 0.33371562140E+01 0.33371562174E+01 0.33678506361E+01
 0.34193753518E+01 0.34728467030E+01 0.35027847631E+01 0.34790319753E+01 0.33676658107E+01
 0.31444445805E+01 0.28032921094E+01 0.23593735035E+01 0.18472206236E+01 0.13147190881E+01
 0.81460165767E+00 0.39564344603E+00 0.96005153091E-01 -.59638280062E-01 0.17239593242E+00
 0.39564281157E+00 0.74733286783E+00 0.11958088060E+01 0.16976031527E+01 0.22023900503E+01
 0.26607547793E+01 0.30327305280E+01 0.32948688216E+01 0.34439961441E+01 0.34964223214E+01
 0.34823262488E+01 0.34332932786E+01 0.33759898497E+01 0.33322533300E+01 0.33160829918E+01
 0.33322533376E+01 0.33759898633E+01 0.34332932884E+01 0.34823262313E+01 0.34964222466E+01
 0.34439959970E+01 0.32948686299E+01 0.30327303762E+01 0.26607547950E+01 0.22023903584E+01
 0.16976038127E+01 0.11958097628E+01 0.74733394310E+00 0.39564374796E+00 0.17239647819E+00
 0.96005153091E-01 0.53944715172E+00 0.81460100609E+00 0.11958088060E+01 0.16457134156E+01
 0.21184197742E+01 0.25658955729E+01 0.29458698211E+01 0.32292244066E+01 0.34049873623E+01
 0.34814577783E+01 0.34828179528E+01 0.34398304126E+01 0.33793131700E+01 0.33246256684E+01
 0.32928528407E+01 0.32928528403E+01 0.33246256723E+01 0.33793131852E+01 0.34398304301E+01
 0.34828179380E+01 0.34814576848E+01 0.34049871672E+01 0.32292241488E+01 0.29458696156E+01
 0.25658955805E+01 0.21184201341E+01 0.16457141669E+01 0.11958098398E+01 0.81460207889E+00
 0.53944796246E+00 0.39564374796E+00 0.39564344603E+00 0.10100640295E+01 0.13147185542E+01
 0.16976031527E+01 0.21184197742E+01 0.25326476164E+01 0.28984432415E+01 0.31837579000E+01
 0.33719160684E+01 0.34641186420E+01 0.34779054791E+01 0.34407742302E+01 0.33787210972E+01
 0.33151803140E+01 0.32690727870E+01 0.32523537837E+01 0.32690727735E+01 0.33151803090E+01
 0.33787211216E+01 0.34407742762E+01 0.34779055004E+01 0.34641185760E+01 0.33719158810E+01
 0.31837576265E+01 0.28984429947E+01 0.25326475479E+01 0.21184200016E+01 0.16976036891E+01
 0.13147192788E+01 0.10100647206E+01 0.81460207889E+00 0.74733394310E+00 0.81460165767E+00
 0.15399810537E+01 0.18472202840E+01 0.22023900503E+01 0.25658955729E+01 0.28984432415E+01
 0.31675232977E+01 0.33530407170E+01 0.34506344568E+01 0.34715879784E+01 0.34386413912E+01
 0.33757661596E+01 0.33052488610E+01 0.32465767123E+01 0.32136761854E+01 0.32136761690E+01
 0.32465766807E+01 0.33052488538E+01 0.33757662069E+01 0.34386414858E+01 0.34715880703E+01
 0.34506344776E+01 0.33530406202E+01 0.31675230926E+01 0.28984429976E+01 0.25658953897E+01
 0.22023900066E+01 0.18472203947E+01 0.15399812582E+01 0.13147192788E+01 0.11958098398E+01
 0.11958097628E+01 0.13147190881E+01 0.20769412962E+01 0.23593733644E+01 0.26607547793E+01
 0.29458698211E+01 0.31837579000E+01 0.33530407170E+01 0.34455802286E+01 0.34673834447E+01
 0.34360386213E+01 0.33723253914E+01 0.32964476534E+01 0.32273252613E+01 0.31797404568E+01
 0.31628538259E+01 0.31797404219E+01 0.32273252208E+01 0.32964476502E+01 0.33723254578E+01
 0.34360387597E+01 0.34673836218E+01 0.34455803861E+01 0.33530407940E+01 0.31837578560E+01
 0.29458696503E+01 0.26607545110E+01 0.23593730516E+01 0.20769409991E+01 0.18472203947E+01
 0.16976036891E+01 0.16457141669E+01 0.16976038127E+01 0.18472206236E+01 0.25688045598E+01
 0.28032921212E+01 0.30327305280E+01 0.32292244066E+01 0.33719160684E+01 0.34506344568E+01
 0.34673834447E+01 0.34349280021E+01 0.33700990663E+01 0.32903712234E+01 0.32132007144E+01
 0.31532365999E+01 0.31206793976E+01 0.31206793826E+01 0.31532365609E+01 0.32132006699E+01
 0.32903712044E+01 0.33700991105E+01 0.34349281398E+01 0.34673836802E+01 0.34506347533E+01
 0.33719163487E+01 0.32292245738E+01 0.30327305029E+01 0.28032918797E+01 0.25688041538E+01
 0.23593730516E+01 0.22023900066E+01 0.21184200016E+01 0.21184201341E+01 0.22023903584E+01
 0.23593735035E+01 0.29726561946E+01 0.31444446694E+01 0.32948688216E+01 0.34049873623E+01
 0.34641186420E+01 0.34715879784E+01 0.34360386213E+01 0.33700990663E+01 0.32882002277E+01
 0.32057146018E+01 0.31363633060E+01 0.30905344628E+01 0.30745554262E+01 0.30905344529E+01
 0.31363632719E+01 0.32057145337E+01 0.32882001435E+01 0.33700990194E+01 0.34360386818E+01
 0.34715881947E+01 0.34641190034E+01 0.34049877868E+01 0.32948691824E+01 0.31444448499E+01
 0.29726561460E+01 0.28032918797E+01 0.26607545110E+01 0.25658953897E+01 0.25326475479E+01
 0.25658955805E+01 0.26607547950E+01 0.28032921094E+01 0.32624593166E+01 0.33676659106E+01
 0.34439961441E+01 0.34814577783E+01 0.34779054791E+01 0.34386413912E+01 0.33723253914E+01
 0.32903712234E+01 0.32057146018E+01 0.31305698811E+01 0.30748337768E+01 0.30452717005E+01
 0.30452717109E+01 0.30748337869E+01 0.31305698438E+01 0.32057144816E+01 0.32903710324E+01
 0.33723251986E+01 0.34386412972E+01 0.34779055675E+01 0.34814580714E+01 0.34439965869E+01
 0.33676663941E+01 0.32624597274E+01 0.31444448499E+01 0.30327305029E+01 0.29458696503E+01
 0.28984429976E+01 0.28984429947E+01 0.29458696156E+01 0.30327303762E+01 0.31444445805E+01
 0.34332856393E+01 0.34790320469E+01 0.34964223214E+01 0.34828179528E+01 0.34407742302E+01
 0.33757661596E+01 0.32964476534E+01 0.32132007144E+01 0.31363633060E+01 0.30748337768E+01
 0.30352393801E+01 0.30215955861E+01 0.30352394217E+01 0.30748338125E+01 0.31363632678E+01
 0.32132005534E+01 0.32964473729E+01 0.33757658235E+01 0.34407739435E+01 0.34828178225E+01
 0.34964224165E+01 0.34790323744E+01 0.34332861435E+01 0.33676663941E+01 0.32948691824E+01
 0.32292245738E+01 0.31837578560E+01 0.31675230926E+01 0.31837576265E+01 0.32292241488E+01
 0.32948686299E+01 0.33676658107E+01 0.35008150601E+01 0.35027847968E+01 0.34823262488E+01
 0.34398304126E+01 0.33787210972E+01 0.33052488610E+01 0.32273252613E+01 0.31532365999E+01
 0.30905344628E+01 0.30452717005E+01 0.30215955861E+01 0.30215956206E+01 0.30452717846E+01
 0.30905345437E+01 0.31532366089E+01 0.32273251386E+01 0.33052485817E+01 0.33787206901E+01
 0.34398299627E+01 0.34823258791E+01 0.35027846306E+01 0.35008151768E+01 0.34790323744E+01
 0.34439965869E+01 0.34049877868E+01 0.33719163487E+01 0.33530407940E+01 0.33530406202E+01
 0.33719158810E+01 0.34049871672E+01 0.34439959970E+01 0.34790319753E+01 0.34958535287E+01
 0.34728467084E+01 0.34332932786E+01 0.33793131700E+01 0.33151803140E+01 0.32465767123E+01
 0.31797404568E+01 0.31206793976E+01 0.30745554262E+01 0.30452717109E+01 0.30352394217E+01
 0.30452717846E+01 0.30745555625E+01 0.31206795647E+01 0.31797405946E+01 0.32465767397E+01
 0.33151801585E+01 0.33793128073E+01 0.34332927625E+01 0.34728461683E+01 0.34958531277E+01
 0.35027846306E+01 0.34964224165E+01 0.34814580714E+01 0.34641190034E+01 0.34506347533E+01
 0.34455803861E+01 0.34506344776E+01 0.34641185760E+01 0.34814576848E+01 0.34964222466E+01
 0.35027847631E+01 0.34520602000E+01 0.34193753443E+01 0.33759898497E+01 0.33246256684E+01
 0.32690727870E+01 0.32136761854E+01 0.31628538259E+01 0.31206793826E+01 0.30905344529E+01
 0.30748337869E+01 0.30748338125E+01 0.30905345437E+01 0.31206795647E+01 0.31628541005E+01
 0.32136764989E+01 0.32690730325E+01 0.33246257256E+01 0.33759896447E+01 0.34193748965E+01
 0.34520596254E+01 0.34728461683E+01 0.34823258791E+01 0.34828178225E+01 0.34779055675E+01
 0.34715881947E+01 0.34673836802E+01 0.34673836218E+01 0.34715880703E+01 0.34779055004E+01
 0.34828179380E+01 0.34823262313E+01 0.34728467030E+01 0.33973953371E+01 0.33678506276E+01
 0.33322533300E+01 0.32928528407E+01 0.32523537837E+01 0.32136761690E+01 0.31797404219E+01
 0.31532365609E+01 0.31363632719E+01 0.31305698438E+01 0.31363632678E+01 0.31532366089E+01
 0.31797405946E+01 0.32136764989E+01 0.32523542257E+01 0.32928532763E+01 0.33322536137E+01
 0.33678506527E+01 0.33973950844E+01 0.34193748965E+01 0.34332927625E+01 0.34398299627E+01
 0.34407739435E+01 0.34386412972E+01 0.34360386818E+01 0.34349281398E+01 0.34360387597E+01
 0.34386414858E+01 0.34407742762E+01 0.34398304301E+01 0.34332932884E+01 0.34193753518E+01
 0.33547401846E+01 0.33371562140E+01 0.33160829918E+01 0.32928528403E+01 0.32690727735E+01
 0.32465766807E+01 0.32273252208E+01 0.32132006699E+01 0.32057145337E+01 0.32057144816E+01
 0.32132005534E+01 0.32273251386E+01 0.32465767397E+01 0.32690730325E+01 0.32928532763E+01
 0.33160835044E+01 0.33371566644E+01 0.33547404497E+01 0.33678506527E+01 0.33759896447E+01
 0.33793128073E+01 0.33787206901E+01 0.33757658235E+01 0.33723251986E+01 0.33700990194E+01
 0.33700991105E+01 0.33723254578E+01 0.33757662069E+01 0.33787211216E+01 0.33793131852E+01
 0.33759898633E+01 0.33678506361E+01 0.33388411111E+01 0.33371562174E+01 0.33322533376E+01
 0.33246256723E+01 0.33151803090E+01 0.33052488538E+01 0.32964476502E+01 0.32903712044E+01
 0.32882001435E+01 0.32903710324E+01 0.32964473729E+01 0.33052485817E+01 0.33151801585E+01
 0.33246257256E+01 0.33322536137E+01 0.33371566644E+01 0.33388416220E+01 0.33371566644E+01
 0.33322536137E+01 0.33246257256E+01 0.33151801585E+01 0.33052485817E+01 0.32964473729E+01
 0.32903710324E+01 0.32882001435E+01 0.32903712044E+01 0.32964476502E+01 0.33052488538E+01
 0.33151803090E+01 0.33246256723E+01 0.33322533376E+01 0.33371562174E+01 0.33547401846E+01
 0.33678506361E+01 0.33759898633E+01 0.33793131852E+01 0.33787211216E+01 0.33757662069E+01
 0.33723254578E+01 0.33700991105E+01 0.33700990194E+01 0.33723251986E+01 0.33757658235E+01
 0.33787206901E+01 0.33793128073E+01 0.33759896447E+01 0.33678506527E+01 0.33547404497E+01
 0.33371566644E+01 0.33160835044E+01 0.32928532763E+01 0.32690730325E+01 0.32465767397E+01
 0.32273251386E+01 0.32132005534E+01 0.32057144816E+01 0.32057145337E+01 0.32132006699E+01
 0.32273252208E+01 0.32465766807E+01 0.32690727735E+01 0.32928528403E+01 0.33160829918E+01
 0.33371562140E+01 0.33973953371E+01 0.34193753518E+01 0.34332932884E+01 0.34398304301E+01
 0.34407742762E+01 0.34386414858E+01 0.34360387597E+01 0.34349281398E+01 0.34360386818E+01
 0.34386412972E+01 0.34407739435E+01 0.34398299627E+01 0.34332927625E+01 0.34193748965E+01
 0.33973950844E+01 0.33678506527E+01 0.33322536137E+01 0.32928532763E+01 0.32523542257E+01
 0.32136764989E+01 0.31797405946E+01 0.31532366089E+01 0.31363632678E+01 0.31305698438E+01
 0.31363632719E+01 0.31532365609E+01 0.31797404219E+01 0.32136761690E+01 0.32523537837E+01
 0.32928528407E+01 0.33322533300E+01 0.33678506276E+01 0.34520602000E+01 0.34728467030E+01
 0.34823262313E+01 0.34828179380E+01 0.34779055004E+01 0.34715880703E+01 0.34673836218E+01
 0.34673836802E+01 0.34715881947E+01 0.34779055675E+01 0.34828178225E+01 0.34823258791E+01
 0.34728461683E+01 0.34520596254E+01 0.34193748965E+01 0.33759896447E+01 0.33246257256E+01
 0.32690730325E+01 0.32136764989E+01 0.31628541005E+01 0.31206795647E+01 0.30905345437E+01
 0.30748338125E+01 0.30748337869E+01 0.30905344529E+01 0.31206793826E+01 0.31628538259E+01
 0.32136761854E+01 0.32690727870E+01 0.33246256684E+01 0.33759898497E+01 0.34193753443E+01
 0.34958535287E+01 0.35027847631E+01 0.34964222466E+01 0.34814576848E+01 0.34641185760E+01
 0.34506344776E+01 0.34455803861E+01 0.34506347533E+01 0.34641190034E+01 0.34814580714E+01
 0.34964224165E+01 0.35027846306E+01 0.34958531277E+01 0.34728461683E+01 0.34332927625E+01
 0.33793128073E+01 0.33151801585E+01 0.32465767397E+01 0.31797405946E+01 0.31206795647E+01
 0.30745555625E+01 0.30452717846E+01 0.30352394217E+01 0.30452717109E+01 0.30745554262E+01
 0.31206793976E+01 0.31797404568E+01 0.32465767123E+01 0.33151803140E+01 0.33793131700E+01
 0.34332932786E+01 0.34728467084E+01 0.35008150601E+01 0.34790319753E+01 0.34439959970E+01
 0.34049871672E+01 0.33719158810E+01 0.33530406202E+01 0.33530407940E+01 0.33719163487E+01
 0.34049877868E+01 0.34439965869E+01 0.34790323744E+01 0.35008151768E+01 0.35027846306E+01
 0.34823258791E+01 0.34398299627E+01 0.33787206901E+01 0.33052485817E+01 0.32273251386E+01
 0.31532366089E+01 0.30905345437E+01 0.30452717846E+01 0.30215956206E+01 0.30215955861E+01
 0.30452717005E+01 0.30905344628E+01 0.31532365999E+01 0.32273252613E+01 0.33052488610E+01
 0.33787210972E+01 0.34398304126E+01 0.34823262488E+01 0.35027847968E+01 0.34332856393E+01
 0.33676658107E+01 0.32948686299E+01 0.32292241488E+01 0.31837576265E+01 0.31675230926E+01
 0.31837578560E+01 0.32292245738E+01 0.32948691824E+01 0.33676663941E+01 0.34332861435E+01
 0.34790323744E+01 0.34964224165E+01 0.34828178225E+01 0.34407739435E+01 0.33757658235E+01
 0.32964473729E+01 0.32132005534E+01 0.31363632678E+01 0.30748338125E+01 0.30352394217E+01
 0.30215955861E+01 0.30352393801E+01 0.30748337768E+01 0.31363633060E+01 0.32132007144E+01
 0.32964476534E+01 0.33757661596E+01 0.34407742302E+01 0.34828179528E+01 0.34964223214E+01
 0.34790320469E+01 0.32624593166E+01 0.31444445805E+01 0.30327303762E+01 0.29458696156E+01
 0.28984429947E+01 0.28984429976E+01 0.29458696503E+01 0.30327305029E+01 0.31444448499E+01
 0.32624597274E+01 0.33676663941E+01 0.34439965869E+01 0.34814580714E+01 0.34779055675E+01
 0.34386412972E+01 0.33723251986E+01 0.32903710324E+01 0.32057144816E+01 0.31305698438E+01
 0.30748337869E+01 0.30452717109E+01 0.30452717005E+01 0.30748337768E+01 0.31305698811E+01
 0.32057146018E+01 0.32903712234E+01 0.33723253914E+01 0.34386413912E+01 0.34779054791E+01
 0.34814577783E+01 0.34439961441E+01 0.33676659106E+01 0.29726561946E+01 0.28032921094E+01
 0.26607547950E+01 0.25658955805E+01 0.25326475479E+01 0.25658953897E+01 0.26607545110E+01
 0.28032918797E+01 0.29726561460E+01 0.31444448499E+01 0.32948691824E+01 0.34049877868E+01
 0.34641190034E+01 0.34715881947E+01 0.34360386818E+01 0.33700990194E+01 0.32882001435E+01
 0.32057145337E+01 0.31363632719E+01 0.30905344529E+01 0.30745554262E+01 0.30905344628E+01
 0.31363633060E+01 0.32057146018E+01 0.32882002277E+01 0.33700990663E+01 0.34360386213E+01
 0.34715879784E+01 0.34641186420E+01 0.34049873623E+01 0.32948688216E+01 0.31444446694E+01
 0.25688045598E+01 0.23593735035E+01 0.22023903584E+01 0.21184201341E+01 0.21184200016E+01
 0.22023900066E+01 0.23593730516E+01 0.25688041538E+01 0.28032918797E+01 0.30327305029E+01
 0.32292245738E+01 0.33719163487E+01 0.34506347533E+01 0.34673836802E+01 0.34349281398E+01
 0.33700991105E+01 0.32903712044E+01 0.32132006699E+01 0.31532365609E+01 0.31206793826E+01
 0.31206793976E+01 0.31532365999E+01 0.32132007144E+01 0.32903712234E+01 0.33700990663E+01
 0.34349280021E+01 0.34673834447E+01 0.34506344568E+01 0.33719160684E+01 0.32292244066E+01
 0.30327305280E+01 0.28032921212E+01 0.20769412962E+01 0.18472206236E+01 0.16976038127E+01
 0.16457141669E+01 0.16976036891E+01 0.18472203947E+01 0.20769409991E+01 0.23593730516E+01
 0.26607545110E+01 0.29458696503E+01 0.31837578560E+01 0.33530407940E+01 0.34455803861E+01
 0.34673836218E+01 0.34360387597E+01 0.33723254578E+01 0.32964476502E+01 0.32273252208E+01
 0.31797404219E+01 0.31628538259E+01 0.31797404568E+01 0.32273252613E+01 0.32964476534E+01
 0.33723253914E+01 0.34360386213E+01 0.34673834447E+01 0.34455802286E+01 0.33530407170E+01
 0.31837579000E+01 0.29458698211E+01 0.26607547793E+01 0.23593733644E+01 0.15399810537E+01
 0.13147190881E+01 0.11958097628E+01 0.11958098398E+01 0.13147192788E+01 0.15399812582E+01
 0.18472203947E+01 0.22023900066E+01 0.25658953897E+01 0.28984429976E+01 0.31675230926E+01
 0.33530406202E+01 0.34506344776E+01 0.34715880703E+01 0.34386414858E+01 0.33757662069E+01
 0.33052488538E+01 0.32465766807E+01 0.32136761690E+01 0.32136761854E+01 0.32465767123E+01
 0.33052488610E+01 0.33757661596E+01 0.34386413912E+01 0.34715879784E+01 0.34506344568E+01
 0.33530407170E+01 0.31675232977E+01 0.28984432415E+01 0.25658955729E+01 0.22023900503E+01
 0.18472202840E+01 0.10100640295E+01 0.81460165767E+00 0.74733394310E+00 0.81460207889E+00
 0.10100647206E+01 0.13147192788E+01 0.16976036891E+01 0.21184200016E+01 0.25326475479E+01
 0.28984429947E+01 0.31837576265E+01 0.33719158810E+01 0.34641185760E+01 0.34779055004E+01
 0.34407742762E+01 0.33787211216E+01 0.33151803090E+01 0.32690727735E+01 0.32523537837E+01
 0.32690727870E+01 0.33151803140E+01 0.33787210972E+01 0.34407742302E+01 0.34779054791E+01
 0.34641186420E+01 0.33719160684E+01 0.31837579000E+01 0.28984432415E+01 0.25326476164E+01
 0.21184197742E+01 0.16976031527E+01 0.13147185542E+01 0.53944715172E+00 0.39564344603E+00
 0.39564374796E+00 0.53944796246E+00 0.81460207889E+00 0.11958098398E+01 0.16457141669E+01
 0.21184201341E+01 0.25658955805E+01 0.29458696156E+01 0.32292241488E+01 0.34049871672E+01
 0.34814576848E+01 0.34828179380E+01 0.34398304301E+01 0.33793131852E+01 0.33246256723E+01
 0.32928528403E+01 0.32928528407E+01 0.33246256684E+01 0.33793131700E+01 0.34398304126E+01
 0.34828179528E+01 0.34814577783E+01 0.34049873623E+01 0.32292244066E+01 0.29458698211E+01
 0.25658955729E+01 0.21184197742E+01 0.16457134156E+01 0.11958088060E+01 0.81460100609E+00
 0.17239593242E+00 0.96005153091E-01 0.17239647819E+00 0.39564374796E+00 0.74733394310E+00
 0.11958097628E+01 0.16976038127E+01 0.22023903584E+01 0.26607547950E+01 0.30327303762E+01
 0.32948686299E+01 0.34439959970E+01 0.34964222466E+01 0.34823262313E+01 0.34332932884E+01
 0.33759898633E+01 0.33322533376E+01 0.33160829918E+01 0.33322533300E+01 0.33759898497E+01
 0.34332932786E+01 0.34823262488E+01 0.34964223214E+01 0.34439961441E+01 0.32948688216E+01
 0.30327305280E+01 0.26607547793E+01 0.22023900503E+01 0.16976031527E+01 0.11958088060E+01
 0.74733286783E+00 0.39564281157E+00 -.59638449884E-01 -.59638280062E-01 0.96005153091E-01
 0.39564344603E+00 0.81460165767E+00 0.13147190881E+01 0.18472206236E+01 0.23593735035E+01
 0.28032921094E+01 0.31444445805E+01 0.33676658107E+01 0.34790319753E+01 0.35027847631E+01
 0.34728467030E+01 0.34193753518E+01 0.33678506361E+01 0.33371562174E+01 0.33371562140E+01
 0.33678506276E+01 0.34193753443E+01 0.34728467084E+01 0.35027847968E+01 0.34790320469E+01
 0.33676659106E+01 0.31444446694E+01 0.28032921212E+01 0.23593733644E+01 0.18472202840E+01
 0.13147185542E+01 0.81460100609E+00 0.39564281157E+00 0.96004689946E-01 -.59638449884E-01
 0.96004689946E-01 0.39564281157E+00 0.81460100609E+00 0.13147185542E+01 0.18472202840E+01
 0.23593733644E+01 0.28032921212E+01 0.31444446694E+01 0.33676659106E+01 0.34790320469E+01
 0.35027847968E+01 0.34728467084E+01 0.34193753443E+01 0.33678506276E+01 0.33371562140E+01
 0.33371562174E+01 0.33678506361E+01 0.34193753518E+01 0.34728467030E+01 0.35027847631E+01
 0.34790319753E+01 0.33676658107E+01 0.31444445805E+01 0.28032921094E+01 0.23593735035E+01
 0.18472206236E+01 0.13147190881E+01 0.81460165767E+00 0.39564344603E+00 0.96005153091E-01
 -.59638280062E-01 0.96004689946E-01 0.32312968903E+00 0.68123815180E+00 0.11384469212E+01
 0.16507915367E+01 0.21671892276E+01 0.26373121282E+01 0.30202695155E+01 0.32918265631E+01
 0.34482919628E+01 0.35058139171E+01 0.34948163872E+01 0.34475821613E+01 0.33911987748E+01
 0.33478494254E+01 0.33317789249E+01 0.33478494341E+01 0.33911987886E+01 0.34475821673E+01
 0.34948163592E+01 0.35058138252E+01 0.34482917961E+01 0.32918263574E+01 0.30202693668E+01
 0.26373121753E+01 0.21671896019E+01 0.16507922963E+01 0.11384479993E+01 0.68123935004E+00
 0.32313072598E+00 0.96005292337E-01 0.18322680892E-01 0.39564281157E+00 0.68123815180E+00
 0.10776712554E+01 0.15467610312E+01 0.20413022636E+01 0.25115934158E+01 0.29135721264E+01
 0.32164789648E+01 0.34081140430E+01 0.34961729892E+01 0.35049521975E+01 0.34663565525E+01
 0.34082323151E+01 0.33546405798E+01 0.33232528296E+01 0.33232528306E+01 0.33546405863E+01
 0.34082323284E+01 0.34663565560E+01 0.35049521504E+01 0.34961728450E+01 0.34081137897E+01
 0.32164786647E+01 0.29135719256E+01 0.25115935058E+01 0.20413027995E+01 0.15467620426E+01
 0.10776725949E+01 0.68123951507E+00 0.39564383123E+00 0.24656276581E+00 0.24656238781E+00
 0.81460100609E+00 0.11384469212E+01 0.15467610312E+01 0.19975231350E+01 0.24439597245E+01
 0.28417098965E+01 0.31562899173E+01 0.33690385841E+01 0.34799516546E+01 0.35063486600E+01
 0.34768204933E+01 0.34191165575E+01 0.33576911398E+01 0.33124132435E+01 0.32958937041E+01
 0.33124132328E+01 0.33576911374E+01 0.34191165769E+01 0.34768205140E+01 0.35063486228E+01
 0.34799514930E+01 0.33690382800E+01 0.31562895469E+01 0.28417096304E+01 0.24439597687E+01
 0.19975236317E+01 0.15467619683E+01 0.11384480998E+01 0.81460209388E+00 0.60727349659E+00
 0.53599986371E+00 0.60727284394E+00 0.13147185542E+01 0.16507915367E+01 0.20413022636E+01
 0.24439597245E+01 0.28163828441E+01 0.31229616456E+01 0.33409181116E+01 0.34640476429E+01
 0.35029444784E+01 0.34811400312E+01 0.34248492690E+01 0.33576852636E+01 0.33003958811E+01
 0.32679139751E+01 0.32679139582E+01 0.33003958503E+01 0.33576852601E+01 0.34248493158E+01
 0.34811401006E+01 0.35029444941E+01 0.34640475225E+01 0.33409178273E+01 0.31229612650E+01
 0.28163825206E+01 0.24439596324E+01 0.20413025084E+01 0.16507920862E+01 0.13147192332E+01
 0.10691717510E+01 0.93981825302E+00 0.93981803873E+00 0.10691711946E+01 0.18472202840E+01
 0.21671892276E+01 0.25115934158E+01 0.28417098965E+01 0.31229616456E+01 0.33307094695E+01
 0.34543892513E+01 0.34988143073E+01 0.34819618965E+01 0.34270327181E+01 0.33557848836E+01
 0.32886146040E+01 0.32416166923E+01 0.32248248290E+01 0.32416166505E+01 0.32886145621E+01
 0.33557848952E+01 0.34270328075E+01 0.34819620332E+01 0.34988144144E+01 0.34543892446E+01
 0.33307093062E+01 0.31229613538E+01 0.28417095666E+01 0.25115931571E+01 0.21671891134E+01
 0.18472203148E+01 0.15884537298E+01 0.14205150113E+01 0.13623702660E+01 0.14205149238E+01
 0.15884536226E+01 0.23593733644E+01 0.26373121282E+01 0.29135721264E+01 0.31562899173E+01
 0.33409181116E+01 0.34543892513E+01 0.34970534398E+01 0.34816685961E+01 0.34274235683E+01
 0.33534022593E+01 0.32786370953E+01 0.32193054431E+01 0.31867610139E+01 0.31867609901E+01
 0.32193053894E+01 0.32786370563E+01 0.33534022830E+01 0.34274236802E+01 0.34816687829E+01
 0.34970536499E+01 0.34543894123E+01 0.33409181568E+01 0.31562898091E+01 0.29135718693E+01
 0.26373117666E+01 0.23593729688E+01 0.21136162896E+01 0.19305628363E+01 0.18329898463E+01
 0.18329899319E+01 0.19305630774E+01 0.21136166417E+01 0.28032921212E+01 0.30202695155E+01
 0.32164789648E+01 0.33690385841E+01 0.34640476429E+01 0.34988143073E+01 0.34816685961E+01
 0.34273830717E+01 0.33518257247E+01 0.32719355700E+01 0.32030672941E+01 0.31569550433E+01
 0.31407842954E+01 0.31569550135E+01 0.32030672444E+01 0.32719355232E+01 0.33518257165E+01
 0.34273831424E+01 0.34816687723E+01 0.34988145811E+01 0.34640479596E+01 0.33690388512E+01
 0.32164790823E+01 0.30202694186E+01 0.28032918155E+01 0.25934548872E+01 0.24189422112E+01
 0.23036127696E+01 0.22633217357E+01 0.23036130206E+01 0.24189426229E+01 0.25934553161E+01
 0.31444446694E+01 0.32918265631E+01 0.34081140430E+01 0.34799516546E+01 0.35029444784E+01
 0.34819618965E+01 0.34274235683E+01 0.33518257247E+01 0.32695722659E+01 0.31945088874E+01
 0.31379688328E+01 0.31077428086E+01 0.31077428073E+01 0.31379688173E+01 0.31945088355E+01
 0.32695721711E+01 0.33518256180E+01 0.34274235165E+01 0.34819619727E+01 0.35029447194E+01
 0.34799520292E+01 0.34081144541E+01 0.32918268859E+01 0.31444448097E+01 0.29860139228E+01
 0.28396722310E+01 0.27275181995E+01 0.26667517758E+01 0.26667518545E+01 0.27275183895E+01
 0.28396724176E+01 0.29860139815E+01 0.33676659106E+01 0.34482919628E+01 0.34961729892E+01
 0.35063486600E+01 0.34811400312E+01 0.34270327181E+01 0.33534022593E+01 0.32719355700E+01
 0.31945088874E+01 0.31314504554E+01 0.30904886246E+01 0.30763138872E+01 0.30904886475E+01
 0.31314504589E+01 0.31945088162E+01 0.32719353983E+01 0.33534020185E+01 0.34270324930E+01
 0.34811399254E+01 0.35063487471E+01 0.34961732769E+01 0.34482923890E+01 0.33676663724E+01
 0.32660802219E+01 0.31600028897E+01 0.30674429821E+01 0.30044806834E+01 0.29821806893E+01
 0.30044806167E+01 0.30674428218E+01 0.31600026078E+01 0.32660798221E+01 0.34790320469E+01
 0.35058139171E+01 0.35049521975E+01 0.34768204933E+01 0.34248492690E+01 0.33557848836E+01
 0.32786370953E+01 0.32030672941E+01 0.31379688328E+01 0.30904886246E+01 0.30655185064E+01
 0.30655185353E+01 0.30904886855E+01 0.31379688616E+01 0.32030672210E+01 0.32786368823E+01
 0.33557845488E+01 0.34248488877E+01 0.34768201743E+01 0.35049520459E+01 0.35058139979E+01
 0.34790323638E+01 0.34292767039E+01 0.33661349070E+01 0.33022183176E+01 0.32505333958E+01
 0.32217100723E+01 0.32217099429E+01 0.32505330339E+01 0.33022177983E+01 0.33661343398E+01
 0.34292762099E+01 0.35027847968E+01 0.34948163872E+01 0.34663565525E+01 0.34191165575E+01
 0.33576852636E+01 0.32886146040E+01 0.32193054431E+01 0.31569550433E+01 0.31077428086E+01
 0.30763138872E+01 0.30655185353E+01 0.30763139598E+01 0.31077429206E+01 0.31569551348E+01
 0.32193054437E+01 0.32886144553E+01 0.33576849456E+01 0.34191161074E+01 0.34663560662E+01
 0.34948159965E+01 0.35027846263E+01 0.34914702578E+01 0.34648628136E+01 0.34301445371E+01
 0.33962431793E+01 0.33717471386E+01 0.33628333389E+01 0.33717468323E+01 0.33962426734E+01
 0.34301440048E+01 0.34648624303E+01 0.34914701399E+01 0.34728467084E+01 0.34475821613E+01
 0.34082323151E+01 0.33576911398E+01 0.33003958811E+01 0.32416166923E+01 0.31867610139E+01
 0.31407842954E+01 0.31077428073E+01 0.30904886475E+01 0.30904886855E+01 0.31077429206E+01
 0.31407844741E+01 0.31867612217E+01 0.32416168582E+01 0.33003959137E+01 0.33576909654E+01
 0.34082319216E+01 0.34475816221E+01 0.34728461668E+01 0.34832492444E+01 0.34803927144E+01
 0.34679512335E+01 0.34509796543E+01 0.34352796861E+01 0.34259451751E+01 0.34259450614E+01
 0.34352794050E+01 0.34509793573E+01 0.34679510909E+01 0.34803928354E+01 0.34832496285E+01
 0.34193753443E+01 0.33911987748E+01 0.33546405798E+01 0.33124132435E+01 0.32679139751E+01
 0.32248248290E+01 0.31867609901E+01 0.31569550135E+01 0.31379688173E+01 0.31314504589E+01
 0.31379688616E+01 0.31569551348E+01 0.31867612217E+01 0.32248251620E+01 0.32679143355E+01
 0.33124135086E+01 0.33546406302E+01 0.33911985545E+01 0.34193748952E+01 0.34375639353E+01
 0.34456192009E+01 0.34449978598E+01 0.34385696330E+01 0.34300447334E+01 0.34231057306E+01
 0.34204599555E+01 0.34231056924E+01 0.34300447302E+01 0.34385697648E+01 0.34449981872E+01
 0.34456196974E+01 0.34375644861E+01 0.33678506276E+01 0.33478494254E+01 0.33232528296E+01
 0.32958937041E+01 0.32679139582E+01 0.32416166505E+01 0.32193053894E+01 0.32030672444E+01
 0.31945088355E+01 0.31945088162E+01 0.32030672210E+01 0.32193054437E+01 0.32416168582E+01
 0.32679143355E+01 0.32958941831E+01 0.33232532792E+01 0.33478497056E+01 0.33678506499E+01
 0.33819217313E+01 0.33894646501E+01 0.33908337455E+01 0.33874085704E+01 0.33814099131E+01
 0.33754287756E+01 0.33717625660E+01 0.33717626218E+01 0.33754289510E+01 0.33814102191E+01
 0.33874089922E+01 0.33908342191E+01 0.33894650657E+01 0.33819219681E+01 0.33371562140E+01
 0.33317789249E+01 0.33232528306E+01 0.33124132328E+01 0.33003958503E+01 0.32886145621E+01
 0.32786370563E+01 0.32719355232E+01 0.32695721711E+01 0.32719353983E+01 0.32786368823E+01
 0.32886144553E+01 0.33003959137E+01 0.33124135086E+01 0.33232532792E+01 0.33317794391E+01
 0.33371566601E+01 0.33388502177E+01 0.33366795090E+01 0.33309380549E+01 0.33225132885E+01
 0.33128941449E+01 0.33039771145E+01 0.32976684058E+01 0.32953898665E+01 0.32976685817E+01
 0.33039774256E+01 0.33128945142E+01 0.33225136156E+01 0.33309382383E+01 0.33366794757E+01
 0.33388499514E+01 0.33371562174E+01 0.33478494341E+01 0.33546405863E+01 0.33576911374E+01
 0.33576852601E+01 0.33557848952E+01 0.33534022830E+01 0.33518257165E+01 0.33518256180E+01
 0.33534020185E+01 0.33557845488E+01 0.33576849456E+01 0.33576909654E+01 0.33546406302E+01
 0.33478497056E+01 0.33371566601E+01 0.33228426000E+01 0.33055284578E+01 0.32861288387E+01
 0.32658707505E+01 0.32463121501E+01 0.32292672926E+01 0.32165839692E+01 0.32098018840E+01
 0.32098019609E+01 0.32165841634E+01 0.32292675093E+01 0.32463122740E+01 0.32658706911E+01
 0.32861285667E+01 0.33055280176E+01 0.33228420950E+01 0.33678506361E+01 0.33911987886E+01
 0.34082323284E+01 0.34191165769E+01 0.34248493158E+01 0.34270328075E+01 0.34274236802E+01
 0.34273831424E+01 0.34274235165E+01 0.34270324930E+01 0.34248488877E+01 0.34191161074E+01
 0.34082319216E+01 0.33911985545E+01 0.33678506499E+01 0.33388502177E+01 0.33055284578E+01
 0.32696862663E+01 0.32334329058E+01 0.31990729680E+01 0.31689922913E+01 0.31454831647E+01
 0.31304923676E+01 0.31253393733E+01 0.31304924316E+01 0.31454832237E+01 0.31689922461E+01
 0.31990727467E+01 0.32334325097E+01 0.32696857791E+01 0.33055280150E+01 0.33388499514E+01
 0.34193753518E+01 0.34475821673E+01 0.34663565560E+01 0.34768205140E+01 0.34811401006E+01
 0.34819620332E+01 0.34816687829E+01 0.34816687723E+01 0.34819619727E+01 0.34811399254E+01
 0.34768201743E+01 0.34663560662E+01 0.34475816221E+01 0.34193748952E+01 0.33819217313E+01
 0.33366795090E+01 0.32861288387E+01 0.32334329058E+01 0.31820977542E+01 0.31356691913E+01
 0.30974556246E+01 0.30702590758E+01 0.30561216695E+01 0.30561216669E+01 0.30702590415E+01
 0.30974554997E+01 0.31356689326E+01 0.31820973810E+01 0.32334325123E+01 0.32861285622E+01