unknown system                          
   1.0000000000000000     
    -2.019739    0.000000    2.019739
     0.000000    2.019739    2.019739
    -2.019739    2.019739    0.000000
   Al
     1
Direct
  0.000000  0.000000  0.000000

   32   32   32
 -.12760770046E+03 -.12562022172E+03 -.11959825202E+03 -.10967333011E+03 -.96292495433E+02
 -.80202218399E+02 -.62447535093E+02 -.45212298276E+02 -.29621790553E+02 -.18284196647E+02
 -.11873021620E+02 -.93892332065E+01 -.75356903223E+01 -.53489094206E+01 -.41394768301E+01
 -.32246448703E+01 -.30871532877E+01 -.32246448703E+01 -.41394768301E+01 -.53489094206E+01
 -.75356903223E+01 -.93892332065E+01 -.11873021620E+02 -.18284196647E+02 -.29621790553E+02
 -.45212298276E+02 -.62447535093E+02 -.80202218399E+02 -.96292495433E+02 -.10967333011E+03
 -.11959825202E+03 -.12562022172E+03 -.12562022172E+03 -.12159735872E+03 -.11357341392E+03
 -.10199659252E+03 -.87149366375E+02 -.70229540154E+02 -.52614198355E+02 -.36335765875E+02
 -.22747187119E+02 -.14164314111E+02 -.10328334994E+02 -.84331009354E+01 -.63175939643E+01
 -.45894171683E+01 -.35825137145E+01 -.30448234459E+01 -.30446502321E+01 -.35831314898E+01
 -.45877983361E+01 -.63210596243E+01 -.84265369793E+01 -.10340666022E+02 -.14140624191E+02
 -.22756872165E+02 -.36354522610E+02 -.52600221866E+02 -.70274760795E+02 -.87153052346E+02
 -.10199387686E+03 -.11362185291E+03 -.12158369327E+03 -.12557188771E+03 -.11959825202E+03
 -.11357341392E+03 -.10391255853E+03 -.90736414478E+02 -.75123721505E+02 -.58104095559E+02
 -.41689704218E+02 -.27118584665E+02 -.16839056683E+02 -.11371681766E+02 -.90963512749E+01
 -.72305170125E+01 -.50766890713E+01 -.39636687508E+01 -.30321826805E+01 -.29486219257E+01
 -.30310944886E+01 -.39659857692E+01 -.50727464093E+01 -.72352999037E+01 -.91009561186E+01
 -.11350828562E+02 -.16849041391E+02 -.27053266836E+02 -.41779611737E+02 -.58059175051E+02
 -.75177860428E+02 -.90737017258E+02 -.10391477244E+03 -.11358367737E+03 -.11959342181E+03
 -.12158369327E+03 -.10967333011E+03 -.10199659252E+03 -.90736414478E+02 -.76809829217E+02
 -.60989949307E+02 -.45110887162E+02 -.30523181673E+02 -.19210894798E+02 -.12477045501E+02
 -.96762188265E+01 -.78760176816E+01 -.57031900945E+01 -.41947539132E+01 -.32163675842E+01
 -.27283463206E+01 -.27426259862E+01 -.32025141854E+01 -.42078329279E+01 -.56921873003E+01
 -.78784108316E+01 -.96830594625E+01 -.12462301785E+02 -.19279153878E+02 -.30468068241E+02
 -.45143373199E+02 -.60961571585E+02 -.76786854082E+02 -.90769666067E+02 -.10196112220E+03
 -.10969494419E+03 -.11358367737E+03 -.11362185291E+03 -.96292495433E+02 -.87149366375E+02
 -.75123721505E+02 -.60989949307E+02 -.46288108069E+02 -.32418295593E+02 -.20847195865E+02
 -.13553035083E+02 -.10098920821E+02 -.83739642377E+01 -.62180100932E+01 -.44631157683E+01
 -.33595270075E+01 -.26187307628E+01 -.24551591294E+01 -.26150035168E+01 -.33670919117E+01
 -.44501083506E+01 -.62446564656E+01 -.83340627909E+01 -.10132354662E+02 -.13487975274E+02
 -.20909523694E+02 -.32406712412E+02 -.46316614771E+02 -.61044048178E+02 -.75096967146E+02
 -.87165139215E+02 -.96324044783E+02 -.10196112220E+03 -.10391477244E+03 -.10199387686E+03
 -.80202218399E+02 -.70229540154E+02 -.58104095559E+02 -.45110887162E+02 -.32418295593E+02
 -.21401416824E+02 -.14161731867E+02 -.10358212072E+02 -.86842347356E+01 -.65977903632E+01
 -.47354423824E+01 -.34558744429E+01 -.25976962357E+01 -.21780937580E+01 -.21957865817E+01
 -.25797302586E+01 -.34755990723E+01 -.47068564451E+01 -.66338490787E+01 -.86510806010E+01
 -.10404847705E+02 -.14152606623E+02 -.21419120806E+02 -.32450229426E+02 -.45046831507E+02
 -.58178936482E+02 -.70206310142E+02 -.80213666454E+02 -.87165139215E+02 -.90769666067E+02
 -.90737017258E+02 -.87153052346E+02 -.62447535093E+02 -.52614198355E+02 -.41689704218E+02
 -.30523181673E+02 -.20847195865E+02 -.14161731867E+02 -.10511803512E+02 -.88213028941E+01
 -.68861424807E+01 -.48906756739E+01 -.35827143491E+01 -.25370291456E+01 -.20449167554E+01
 -.17796954704E+01 -.20470639071E+01 -.25316606257E+01 -.35973580235E+01 -.48720716989E+01
 -.68981093589E+01 -.87868225758E+01 -.10506752417E+02 -.14180770571E+02 -.20802650630E+02
 -.30625625911E+02 -.41628179752E+02 -.52662246538E+02 -.62463656592E+02 -.70206310142E+02
 -.75096967146E+02 -.76786854082E+02 -.75177860428E+02 -.70274760795E+02 -.45212298276E+02
 -.36335765875E+02 -.27118584665E+02 -.19210894798E+02 -.13553035083E+02 -.10358212072E+02
 -.88213028941E+01 -.69221139743E+01 -.50124621432E+01 -.36113964149E+01 -.25765779044E+01
 -.18793750054E+01 -.15597284871E+01 -.15354548950E+01 -.19042942988E+01 -.25455654736E+01
 -.36407479149E+01 -.49960713247E+01 -.69499736463E+01 -.88342390004E+01 -.10327155890E+02
 -.13641560723E+02 -.19112769293E+02 -.27179672335E+02 -.36331837669E+02 -.45092489785E+02
 -.52662246538E+02 -.58178936482E+02 -.61044048178E+02 -.60961571585E+02 -.58059175051E+02
 -.52600221866E+02 -.29621790553E+02 -.22747187119E+02 -.16839056683E+02 -.12477045501E+02
 -.10098920821E+02 -.86842347356E+01 -.68861424807E+01 -.50124621432E+01 -.36638392802E+01
 -.25533385413E+01 -.18244141481E+01 -.13612218912E+01 -.12381256029E+01 -.13629479160E+01
 -.18266722549E+01 -.25564945579E+01 -.36460710015E+01 -.50216023650E+01 -.68275586772E+01
 -.87452884893E+01 -.99750464750E+01 -.12612625992E+02 -.16782248083E+02 -.22687978503E+02
 -.29792827399E+02 -.36331837669E+02 -.41628179752E+02 -.45046831507E+02 -.46316614771E+02
 -.45143373199E+02 -.41779611737E+02 -.36354522610E+02 -.18284196647E+02 -.14164314111E+02
 -.11371681766E+02 -.96762188265E+01 -.83739642377E+01 -.65977903632E+01 -.48906756739E+01
 -.36113964149E+01 -.25533385413E+01 -.17959276564E+01 -.12892566501E+01 -.10374922794E+01
 -.10298520678E+01 -.12907389779E+01 -.17885921063E+01 -.25738035759E+01 -.36016584834E+01
 -.49516808441E+01 -.65404205598E+01 -.84759755082E+01 -.95698945878E+01 -.11330939407E+02
 -.14343032188E+02 -.18051719529E+02 -.22687978503E+02 -.27179672335E+02 -.30625625911E+02
 -.32450229426E+02 -.32406712412E+02 -.30468068241E+02 -.27053266836E+02 -.22756872165E+02
 -.11873021620E+02 -.10328334994E+02 -.90963512749E+01 -.78760176816E+01 -.62180100932E+01
 -.47354423824E+01 -.35827143491E+01 -.25765779044E+01 -.18244141481E+01 -.12892566501E+01
 -.95974042200E+00 -.87123012896E+00 -.96473870403E+00 -.12937606162E+01 -.18070253039E+01
 -.25806074752E+01 -.35295066898E+01 -.47718693965E+01 -.61551236438E+01 -.79043595723E+01
 -.92357181810E+01 -.10080554077E+02 -.12013542527E+02 -.14343032188E+02 -.16782248083E+02
 -.19112769293E+02 -.20802650630E+02 -.21419120806E+02 -.20909523694E+02 -.19279153878E+02
 -.16849041391E+02 -.14140624191E+02 -.93892332065E+01 -.84331009354E+01 -.72305170125E+01
 -.57031900945E+01 -.44631157683E+01 -.34558744429E+01 -.25370291456E+01 -.18793750054E+01
 -.13612218912E+01 -.10374922794E+01 -.87123012896E+00 -.86676371207E+00 -.10327271691E+01
 -.13736031279E+01 -.18870040871E+01 -.25745515782E+01 -.34494774880E+01 -.44890689344E+01
 -.57210413044E+01 -.70777104355E+01 -.85943751752E+01 -.94313051029E+01 -.10080554077E+02
 -.11330939407E+02 -.12612625992E+02 -.13641560723E+02 -.14180770571E+02 -.14152606623E+02
 -.13487975274E+02 -.12462301785E+02 -.11350828562E+02 -.10340666022E+02 -.75356903223E+01
 -.63175939643E+01 -.50766890713E+01 -.41947539132E+01 -.33595270075E+01 -.25976962357E+01
 -.20449167554E+01 -.15597284871E+01 -.12381256029E+01 -.10298520678E+01 -.96473870403E+00
 -.10327271691E+01 -.12296625589E+01 -.15471720189E+01 -.20082920881E+01 -.25980051237E+01
 -.33310703205E+01 -.41918823245E+01 -.51794914133E+01 -.62639415399E+01 -.74202876620E+01
 -.85943751752E+01 -.92357181810E+01 -.95698945878E+01 -.99750464750E+01 -.10327155890E+02
 -.10506752417E+02 -.10404847705E+02 -.10132354662E+02 -.96830594625E+01 -.91009561186E+01
 -.84265369793E+01 -.53489094206E+01 -.45894171683E+01 -.39636687508E+01 -.32163675842E+01
 -.26187307628E+01 -.21780937580E+01 -.17796954704E+01 -.15354548950E+01 -.13629479160E+01
 -.12907389779E+01 -.12937606162E+01 -.13736031279E+01 -.15471720189E+01 -.18203283980E+01
 -.21818913987E+01 -.26497715309E+01 -.32124101610E+01 -.38761754773E+01 -.46187788183E+01
 -.54293362358E+01 -.62639415399E+01 -.70777104355E+01 -.79043595723E+01 -.84759755082E+01
 -.87452884893E+01 -.88342390004E+01 -.87868225758E+01 -.86510806010E+01 -.83340627909E+01
 -.78784108316E+01 -.72352999037E+01 -.63210596243E+01 -.41394768301E+01 -.35825137145E+01
 -.30321826805E+01 -.27283463206E+01 -.24551591294E+01 -.21957865817E+01 -.20470639071E+01
 -.19042942988E+01 -.18266722549E+01 -.17885921063E+01 -.18070253039E+01 -.18870040871E+01
 -.20082920881E+01 -.21818913987E+01 -.24254952255E+01 -.27330965512E+01 -.31166278989E+01
 -.35644951760E+01 -.40744016938E+01 -.46187788183E+01 -.51794914133E+01 -.57210413044E+01
 -.61551236438E+01 -.65404205598E+01 -.68275586772E+01 -.69499736463E+01 -.68981093589E+01
 -.66338490787E+01 -.62446564656E+01 -.56921873003E+01 -.50727464093E+01 -.45877983361E+01
 -.32246448703E+01 -.30448234459E+01 -.29486219257E+01 -.27426259862E+01 -.26150035168E+01
 -.25797302586E+01 -.25316606257E+01 -.25455654736E+01 -.25564945579E+01 -.25738035759E+01
 -.25806074752E+01 -.25745515782E+01 -.25980051237E+01 -.26497715309E+01 -.27330965512E+01
 -.28672639163E+01 -.30494548152E+01 -.32866635335E+01 -.35644951760E+01 -.38761754773E+01
 -.41918823245E+01 -.44890689344E+01 -.47718693965E+01 -.49516808441E+01 -.50216023650E+01
 -.49960713247E+01 -.48720716989E+01 -.47068564451E+01 -.44501083506E+01 -.42078329279E+01
 -.39659857692E+01 -.35831314898E+01 -.30871532877E+01 -.30446502321E+01 -.30310944886E+01
 -.32025141854E+01 -.33670919117E+01 -.34755990723E+01 -.35973580235E+01 -.36407479149E+01
 -.36460710015E+01 -.36016584834E+01 -.35295066898E+01 -.34494774880E+01 -.33310703205E+01
 -.32124101610E+01 -.31166278989E+01 -.30494548152E+01 -.30282436680E+01 -.30494548152E+01
 -.31166278989E+01 -.32124101610E+01 -.33310703205E+01 -.34494774880E+01 -.35295066898E+01
 -.36016584834E+01 -.36460710015E+01 -.36407479149E+01 -.35973580235E+01 -.34755990723E+01
 -.33670919117E+01 -.32025141854E+01 -.30310944886E+01 -.30446502321E+01 -.32246448703E+01
 -.35831314898E+01 -.39659857692E+01 -.42078329279E+01 -.44501083506E+01 -.47068564451E+01
 -.48720716989E+01 -.49960713247E+01 -.50216023650E+01 -.49516808441E+01 -.47718693965E+01
 -.44890689344E+01 -.41918823245E+01 -.38761754773E+01 -.35644951760E+01 -.32866635335E+01
 -.30494548152E+01 -.28672639163E+01 -.27330965512E+01 -.26497715309E+01 -.25980051237E+01
 -.25745515782E+01 -.25806074752E+01 -.25738035759E+01 -.25564945579E+01 -.25455654736E+01
 -.25316606257E+01 -.25797302586E+01 -.26150035168E+01 -.27426259862E+01 -.29486219257E+01
 -.30448234459E+01 -.41394768301E+01 -.45877983361E+01 -.50727464093E+01 -.56921873003E+01
 -.62446564656E+01 -.66338490787E+01 -.68981093589E+01 -.69499736463E+01 -.68275586772E+01
 -.65404205598E+01 -.61551236438E+01 -.57210413044E+01 -.51794914133E+01 -.46187788183E+01
 -.40744016938E+01 -.35644951760E+01 -.31166278989E+01 -.27330965512E+01 -.24254952255E+01
 -.21818913987E+01 -.20082920881E+01 -.18870040871E+01 -.18070253039E+01 -.17885921063E+01
 -.18266722549E+01 -.19042942988E+01 -.20470639071E+01 -.21957865817E+01 -.24551591294E+01
 -.27283463206E+01 -.30321826805E+01 -.35825137145E+01 -.53489094206E+01 -.63210596243E+01
 -.72352999037E+01 -.78784108316E+01 -.83340627909E+01 -.86510806010E+01 -.87868225758E+01
 -.88342390004E+01 -.87452884893E+01 -.84759755082E+01 -.79043595723E+01 -.70777104355E+01
 -.62639415399E+01 -.54293362358E+01 -.46187788183E+01 -.38761754773E+01 -.32124101610E+01
 -.26497715309E+01 -.21818913987E+01 -.18203283980E+01 -.15471720189E+01 -.13736031279E+01
 -.12937606162E+01 -.12907389779E+01 -.13629479160E+01 -.15354548950E+01 -.17796954704E+01
 -.21780937580E+01 -.26187307628E+01 -.32163675842E+01 -.39636687508E+01 -.45894171683E+01
 -.75356903223E+01 -.84265369793E+01 -.91009561186E+01 -.96830594625E+01 -.10132354662E+02
 -.10404847705E+02 -.10506752417E+02 -.10327155890E+02 -.99750464750E+01 -.95698945878E+01
 -.92357181810E+01 -.85943751752E+01 -.74202876620E+01 -.62639415399E+01 -.51794914133E+01
 -.41918823245E+01 -.33310703205E+01 -.25980051237E+01 -.20082920881E+01 -.15471720189E+01
 -.12296625589E+01 -.10327271691E+01 -.96473870403E+00 -.10298520678E+01 -.12381256029E+01
 -.15597284871E+01 -.20449167554E+01 -.25976962357E+01 -.33595270075E+01 -.41947539132E+01
 -.50766890713E+01 -.63175939643E+01 -.93892332065E+01 -.10340666022E+02 -.11350828562E+02
 -.12462301785E+02 -.13487975274E+02 -.14152606623E+02 -.14180770571E+02 -.13641560723E+02
 -.12612625992E+02 -.11330939407E+02 -.10080554077E+02 -.94313051029E+01 -.85943751752E+01
 -.70777104355E+01 -.57210413044E+01 -.44890689344E+01 -.34494774880E+01 -.25745515782E+01
 -.18870040871E+01 -.13736031279E+01 -.10327271691E+01 -.86676371207E+00 -.87123012896E+00
 -.10374922794E+01 -.13612218912E+01 -.18793750054E+01 -.25370291456E+01 -.34558744429E+01
 -.44631157683E+01 -.57031900945E+01 -.72305170125E+01 -.84331009354E+01 -.11873021620E+02
 -.14140624191E+02 -.16849041391E+02 -.19279153878E+02 -.20909523694E+02 -.21419120806E+02
 -.20802650630E+02 -.19112769293E+02 -.16782248083E+02 -.14343032188E+02 -.12013542527E+02
 -.10080554077E+02 -.92357181810E+01 -.79043595723E+01 -.61551236438E+01 -.47718693965E+01
 -.35295066898E+01 -.25806074752E+01 -.18070253039E+01 -.12937606162E+01 -.96473870403E+00
 -.87123012896E+00 -.95974042200E+00 -.12892566501E+01 -.18244141481E+01 -.25765779044E+01
 -.35827143491E+01 -.47354423824E+01 -.62180100932E+01 -.78760176816E+01 -.90963512749E+01
 -.10328334994E+02 -.18284196647E+02 -.22756872165E+02 -.27053266836E+02 -.30468068241E+02
 -.32406712412E+02 -.32450229426E+02 -.30625625911E+02 -.27179672335E+02 -.22687978503E+02
 -.18051719529E+02 -.14343032188E+02 -.11330939407E+02 -.95698945878E+01 -.84759755082E+01
 -.65404205598E+01 -.49516808441E+01 -.36016584834E+01 -.25738035759E+01 -.17885921063E+01
 -.12907389779E+01 -.10298520678E+01 -.10374922794E+01 -.12892566501E+01 -.17959276564E+01
 -.25533385413E+01 -.36113964149E+01 -.48906756739E+01 -.65977903632E+01 -.83739642377E+01
 -.96762188265E+01 -.11371681766E+02 -.14164314111E+02 -.29621790553E+02 -.36354522610E+02
 -.41779611737E+02 -.45143373199E+02 -.46316614771E+02 -.45046831507E+02 -.41628179752E+02
 -.36331837669E+02 -.29792827399E+02 -.22687978503E+02 -.16782248083E+02 -.12612625992E+02
 -.99750464750E+01 -.87452884893E+01 -.68275586772E+01 -.50216023650E+01 -.36460710015E+01
 -.25564945579E+01 -.18266722549E+01 -.13629479160E+01 -.12381256029E+01 -.13612218912E+01
 -.18244141481E+01 -.25533385413E+01 -.36638392802E+01 -.50124621432E+01 -.68861424807E+01
 -.86842347356E+01 -.10098920821E+02 -.12477045501E+02 -.16839056683E+02 -.22747187119E+02
 -.45212298276E+02 -.52600221866E+02 -.58059175051E+02 -.60961571585E+02 -.61044048178E+02
 -.58178936482E+02 -.52662246538E+02 -.45092489785E+02 -.36331837669E+02 -.27179672335E+02
 -.19112769293E+02 -.13641560723E+02 -.10327155890E+02 -.88342390004E+01 -.69499736463E+01
 -.49960713247E+01 -.36407479149E+01 -.25455654736E+01 -.19042942988E+01 -.15354548950E+01
 -.15597284871E+01 -.18793750054E+01 -.25765779044E+01 -.36113964149E+01 -.50124621432E+01
 -.69221139743E+01 -.88213028941E+01 -.10358212072E+02 -.13553035083E+02 -.19210894798E+02
 -.27118584665E+02 -.36335765875E+02 -.62447535093E+02 -.70274760795E+02 -.75177860428E+02
 -.76786854082E+02 -.75096967146E+02 -.70206310142E+02 -.62463656592E+02 -.52662246538E+02
 -.41628179752E+02 -.30625625911E+02 -.20802650630E+02 -.14180770571E+02 -.10506752417E+02
 -.87868225758E+01 -.68981093589E+01 -.48720716989E+01 -.35973580235E+01 -.25316606257E+01
 -.20470639071E+01 -.17796954704E+01 -.20449167554E+01 -.25370291456E+01 -.35827143491E+01
 -.48906756739E+01 -.68861424807E+01 -.88213028941E+01 -.10511803512E+02 -.14161731867E+02
 -.20847195865E+02 -.30523181673E+02 -.41689704218E+02 -.52614198355E+02 -.80202218399E+02
 -.87153052346E+02 -.90737017258E+02 -.90769666067E+02 -.87165139215E+02 -.80213666454E+02
 -.70206310142E+02 -.58178936482E+02 -.45046831507E+02 -.32450229426E+02 -.21419120806E+02
 -.14152606623E+02 -.10404847705E+02 -.86510806010E+01 -.66338490787E+01 -.47068564451E+01
 -.34755990723E+01 -.25797302586E+01 -.21957865817E+01 -.21780937580E+01 -.25976962357E+01
 -.34558744429E+01 -.47354423824E+01 -.65977903632E+01 -.86842347356E+01 -.10358212072E+02
 -.14161731867E+02 -.21401416824E+02 -.32418295593E+02 -.45110887162E+02 -.58104095559E+02
 -.70229540154E+02 -.96292495433E+02 -.10199387686E+03 -.10391477244E+03 -.10196112220E+03
 -.96324044783E+02 -.87165139215E+02 -.75096967146E+02 -.61044048178E+02 -.46316614771E+02
 -.32406712412E+02 -.20909523694E+02 -.13487975274E+02 -.10132354662E+02 -.83340627909E+01
 -.62446564656E+01 -.44501083506E+01 -.33670919117E+01 -.26150035168E+01 -.24551591294E+01
 -.26187307628E+01 -.33595270075E+01 -.44631157683E+01 -.62180100932E+01 -.83739642377E+01
 -.10098920821E+02 -.13553035083E+02 -.20847195865E+02 -.32418295593E+02 -.46288108069E+02
 -.60989949307E+02 -.75123721505E+02 -.87149366375E+02 -.10967333011E+03 -.11362185291E+03
 -.11358367737E+03 -.10969494419E+03 -.10196112220E+03 -.90769666067E+02 -.76786854082E+02
 -.60961571585E+02 -.45143373199E+02 -.30468068241E+02 -.19279153878E+02 -.12462301785E+02
 -.96830594625E+01 -.78784108316E+01 -.56921873003E+01 -.42078329279E+01 -.32025141854E+01
 -.27426259862E+01 -.27283463206E+01 -.32163675842E+01 -.41947539132E+01 -.57031900945E+01
 -.78760176816E+01 -.96762188265E+01 -.12477045501E+02 -.19210894798E+02 -.30523181673E+02
 -.45110887162E+02 -.60989949307E+02 -.76809829217E+02 -.90736414478E+02 -.10199659252E+03
 -.11959825202E+03 -.12158369327E+03 -.11959342181E+03 -.11358367737E+03 -.10391477244E+03
 -.90737017258E+02 -.75177860428E+02 -.58059175051E+02 -.41779611737E+02 -.27053266836E+02
 -.16849041391E+02 -.11350828562E+02 -.91009561186E+01 -.72352999037E+01 -.50727464093E+01
 -.39659857692E+01 -.30310944886E+01 -.29486219257E+01 -.30321826805E+01 -.39636687508E+01
 -.50766890713E+01 -.72305170125E+01 -.90963512749E+01 -.11371681766E+02 -.16839056683E+02
 -.27118584665E+02 -.41689704218E+02 -.58104095559E+02 -.75123721505E+02 -.90736414478E+02
 -.10391255853E+03 -.11357341392E+03 -.12562022172E+03 -.12557188771E+03 -.12158369327E+03
 -.11362185291E+03 -.10199387686E+03 -.87153052346E+02 -.70274760795E+02 -.52600221866E+02
 -.36354522610E+02 -.22756872165E+02 -.14140624191E+02 -.10340666022E+02 -.84265369793E+01
 -.63210596243E+01 -.45877983361E+01 -.35831314898E+01 -.30446502321E+01 -.30448234459E+01
 -.35825137145E+01 -.45894171683E+01 -.63175939643E+01 -.84331009354E+01 -.10328334994E+02
 -.14164314111E+02 -.22747187119E+02 -.36335765875E+02 -.52614198355E+02 -.70229540154E+02
 -.87149366375E+02 -.10199659252E+03 -.11357341392E+03 -.12159735872E+03 -.12562022172E+03
 -.12159735872E+03 -.11357341392E+03 -.10199659252E+03 -.87149366375E+02 -.70229540154E+02
 -.52614198355E+02 -.36335765875E+02 -.22747187119E+02 -.14164314111E+02 -.10328334994E+02
 -.84331009354E+01 -.63175939643E+01 -.45894171683E+01 -.35825137145E+01 -.30448234459E+01
 -.30446502321E+01 -.35831314898E+01 -.45877983361E+01 -.63210596243E+01 -.84265369793E+01
 -.10340666022E+02 -.14140624191E+02 -.22756872165E+02 -.36354522610E+02 -.52600221866E+02
 -.70274760795E+02 -.87153052346E+02 -.10199387686E+03 -.11362185291E+03 -.12158369327E+03
 -.12557188771E+03 -.12159735872E+03 -.11554716966E+03 -.10585118064E+03 -.92593512811E+02
 -.76789039095E+02 -.59571890739E+02 -.42819359464E+02 -.27944939544E+02 -.17264542566E+02
 -.11529351489E+02 -.91942954291E+01 -.73511716159E+01 -.51585878816E+01 -.40348773453E+01
 -.30932195298E+01 -.30050046928E+01 -.30941853762E+01 -.40326498830E+01 -.51628761664E+01
 -.73447320609E+01 -.91956523444E+01 -.11525277323E+02 -.17346401968E+02 -.27839538617E+02
 -.42901689950E+02 -.59441217149E+02 -.76825048154E+02 -.92541194815E+02 -.10582503108E+03
 -.11553238392E+03 -.12157575816E+03 -.12360094662E+03 -.11357341392E+03 -.10585118064E+03
 -.94427582448E+02 -.80167545200E+02 -.64025890881E+02 -.47504858881E+02 -.32432236755E+02
 -.20294724101E+02 -.13025011933E+02 -.98766603521E+01 -.80828530259E+01 -.59001471530E+01
 -.43378483256E+01 -.33402306452E+01 -.28422075536E+01 -.28489077616E+01 -.33347314608E+01
 -.43405925929E+01 -.59020028558E+01 -.80741077317E+01 -.99041224062E+01 -.12964191094E+02
 -.20362083218E+02 -.32387030194E+02 -.47527136232E+02 -.64042772866E+02 -.80135578151E+02
 -.94475749350E+02 -.10579013780E+03 -.11365480961E+03 -.11759772160E+03 -.11757754469E+03
 -.10199659252E+03 -.92593512811E+02 -.80167545200E+02 -.65561747798E+02 -.49977325392E+02
 -.35394307740E+02 -.22691968937E+02 -.14535622450E+02 -.10461007738E+02 -.86106590612E+01
 -.65785324433E+01 -.46560178683E+01 -.35793975990E+01 -.27472170194E+01 -.26440812768E+01
 -.27399992419E+01 -.35945495420E+01 -.46324982493E+01 -.66067063772E+01 -.85752207350E+01
 -.10535671549E+02 -.14452167478E+02 -.22749028829E+02 -.35353078138E+02 -.49995129135E+02
 -.65550341209E+02 -.80146431839E+02 -.92624190623E+02 -.10195116484E+03 -.10772937273E+03
 -.10966371480E+03 -.10774561375E+03 -.87149366375E+02 -.76789039095E+02 -.64025890881E+02
 -.49977325392E+02 -.36436140260E+02 -.24016221564E+02 -.15650316126E+02 -.10956279687E+02
 -.90217825143E+01 -.70553512976E+01 -.50330129580E+01 -.37077849720E+01 -.28079966509E+01
 -.23625430157E+01 -.23920086958E+01 -.27768292741E+01 -.37417839732E+01 -.49980715344E+01
 -.70938029920E+01 -.89684628195E+01 -.11004584577E+02 -.15603008283E+02 -.23996115867E+02
 -.36428517047E+02 -.49951419833E+02 -.64095580346E+02 -.76734845554E+02 -.87237378981E+02
 -.94429747248E+02 -.98234262195E+02 -.98182678020E+02 -.94445389669E+02 -.70229540154E+02
 -.59571890739E+02 -.47504858881E+02 -.35394307740E+02 -.24016221564E+02 -.16016858474E+02
 -.11290471732E+02 -.91856157813E+01 -.74244018284E+01 -.52656251205E+01 -.39134956130E+01
 -.27750883482E+01 -.22718181531E+01 -.19698944717E+01 -.22787605170E+01 -.27616952311E+01
 -.39297791164E+01 -.52425933083E+01 -.74723969082E+01 -.91522040227E+01 -.11317278509E+02
 -.15995856351E+02 -.24044784311E+02 -.35375701963E+02 -.47447358045E+02 -.59563147874E+02
 -.70164676782E+02 -.78459934870E+02 -.83569941864E+02 -.85403366747E+02 -.83597461075E+02
 -.78505214285E+02 -.52614198355E+02 -.42819359464E+02 -.32432236755E+02 -.22691968937E+02
 -.15650316126E+02 -.11290471732E+02 -.92746667894E+01 -.75912301728E+01 -.54903833527E+01
 -.39915638731E+01 -.28441546719E+01 -.21126946731E+01 -.17709091101E+01 -.17385193532E+01
 -.21452221058E+01 -.28149226212E+01 -.40209444485E+01 -.54433205705E+01 -.76294709059E+01
 -.92357665528E+01 -.11304529872E+02 -.15609656768E+02 -.22644791691E+02 -.32516623750E+02
 -.42761957788E+02 -.52720174222E+02 -.61050931237E+02 -.67134771818E+02 -.70263625956E+02
 -.70285108607E+02 -.67072413153E+02 -.60973650586E+02 -.36335765875E+02 -.27944939544E+02
 -.20294724101E+02 -.14535622450E+02 -.10956279687E+02 -.91856157813E+01 -.75912301728E+01
 -.55247215805E+01 -.40515965102E+01 -.28466034856E+01 -.20760948796E+01 -.15574887169E+01
 -.14312096685E+01 -.15538349949E+01 -.20789874577E+01 -.28410860351E+01 -.40746841874E+01
 -.55165379599E+01 -.76124059536E+01 -.92006947846E+01 -.10936722002E+02 -.14624454134E+02
 -.20168003695E+02 -.28029518131E+02 -.36289885313E+02 -.43872225170E+02 -.49966758508E+02
 -.53918634428E+02 -.55231702679E+02 -.53948322054E+02 -.50005795017E+02 -.44004738302E+02
 -.22747187119E+02 -.17264542566E+02 -.13025011933E+02 -.10461007738E+02 -.90217825143E+01
 -.74244018284E+01 -.54903833527E+01 -.40515965102E+01 -.28920128793E+01 -.20216146261E+01
 -.14720204169E+01 -.11736823952E+01 -.12044134197E+01 -.14466783550E+01 -.20459705232E+01
 -.28541119448E+01 -.40657657791E+01 -.54709496372E+01 -.74029512022E+01 -.90595447088E+01
 -.10341057039E+02 -.13177593918E+02 -.17190012191E+02 -.22707841046E+02 -.28933769594E+02
 -.34396844510E+02 -.38469895138E+02 -.40594856652E+02 -.40642878419E+02 -.38451471187E+02
 -.34341240955E+02 -.28730308588E+02 -.14164314111E+02 -.11529351489E+02 -.98766603521E+01
 -.86106590612E+01 -.70553512976E+01 -.52656251205E+01 -.39915638731E+01 -.28466034856E+01
 -.20216146261E+01 -.14200972529E+01 -.10833620520E+01 -.95596549852E+00 -.10759752950E+01
 -.14285721588E+01 -.20258832433E+01 -.28701620982E+01 -.39732404185E+01 -.53365583949E+01
 -.69838144956E+01 -.87765090690E+01 -.97254148584E+01 -.11554475195E+02 -.14346552631E+02
 -.17579684483E+02 -.21376824244E+02 -.24776666983E+02 -.27136075648E+02 -.27904877955E+02
 -.27061190820E+02 -.24804309764E+02 -.21523332239E+02 -.17763563793E+02 -.10328334994E+02
 -.91942954291E+01 -.80828530259E+01 -.65785324433E+01 -.50330129580E+01 -.39134956130E+01
 -.28441546719E+01 -.20760948796E+01 -.14720204169E+01 -.10833620520E+01 -.87250189102E+00
 -.88588759807E+00 -.10713751034E+01 -.14703048613E+01 -.20482412943E+01 -.28598597890E+01
 -.38418398768E+01 -.50846729963E+01 -.64579173440E+01 -.81450935148E+01 -.93126692193E+01
 -.10073448474E+02 -.11770703194E+02 -.13719323542E+02 -.15614721787E+02 -.17194708324E+02
 -.18161985416E+02 -.18188283098E+02 -.17273664406E+02 -.15539032250E+02 -.13508814215E+02
 -.11688325857E+02 -.84331009354E+01 -.73511716159E+01 -.59001471530E+01 -.46560178683E+01
 -.37077849720E+01 -.27750883482E+01 -.21126946731E+01 -.15574887169E+01 -.11736823952E+01
 -.95596549852E+00 -.88588759807E+00 -.95960560159E+00 -.11853120258E+01 -.15752279061E+01
 -.21178334970E+01 -.28256663106E+01 -.36971287561E+01 -.47213349463E+01 -.59055517834E+01
 -.71930687481E+01 -.85962580645E+01 -.93633957220E+01 -.98668060242E+01 -.10737722658E+02
 -.11637294060E+02 -.12265865212E+02 -.12438656252E+02 -.12212376569E+02 -.11582011393E+02
 -.10880492838E+02 -.10085913012E+02 -.92955015709E+01 -.63175939643E+01 -.51585878816E+01
 -.43378483256E+01 -.35793975990E+01 -.28079966509E+01 -.22718181531E+01 -.17709091101E+01
 -.14312096685E+01 -.12044134197E+01 -.10759752950E+01 -.10713751034E+01 -.11853120258E+01
 -.14181884432E+01 -.17544467849E+01 -.22245691465E+01 -.28055914089E+01 -.35182159775E+01
 -.43386369004E+01 -.52655968685E+01 -.62653826057E+01 -.72971286578E+01 -.83621796438E+01
 -.89998066643E+01 -.92929038840E+01 -.94979710892E+01 -.96572510290E+01 -.96926519759E+01
 -.95485688472E+01 -.92934899062E+01 -.88060645458E+01 -.82387087418E+01 -.74231828003E+01
 -.45894171683E+01 -.40348773453E+01 -.33402306452E+01 -.27472170194E+01 -.23625430157E+01
 -.19698944717E+01 -.17385193532E+01 -.15538349949E+01 -.14466783550E+01 -.14285721588E+01
 -.14703048613E+01 -.15752279061E+01 -.17544467849E+01 -.20256656165E+01 -.23695675306E+01
 -.28127569681E+01 -.33347774276E+01 -.39463365352E+01 -.46189915616E+01 -.53390624431E+01
 -.60697310978E+01 -.67346116213E+01 -.74129587727E+01 -.79189886426E+01 -.81942246736E+01
 -.82502589951E+01 -.81480375721E+01 -.79053949574E+01 -.74619371090E+01 -.69096704151E+01
 -.60952359363E+01 -.52552088830E+01 -.35825137145E+01 -.30932195298E+01 -.28422075536E+01
 -.26440812768E+01 -.23920086958E+01 -.22787605170E+01 -.21452221058E+01 -.20789874577E+01
 -.20459705232E+01 -.20258832433E+01 -.20482412943E+01 -.21178334970E+01 -.22245691465E+01
 -.23695675306E+01 -.25806943816E+01 -.28439209467E+01 -.31779502593E+01 -.35642598028E+01
 -.40021347144E+01 -.44634075586E+01 -.49224950620E+01 -.53709291257E+01 -.56896895867E+01
 -.59358451197E+01 -.60715248091E+01 -.60924366430E+01 -.59592275309E+01 -.56699737154E+01
 -.53038150816E+01 -.48140496416E+01 -.44471902102E+01 -.40723118684E+01 -.30448234459E+01
 -.30050046928E+01 -.28489077616E+01 -.27399992419E+01 -.27768292741E+01 -.27616952311E+01
 -.28149226212E+01 -.28410860351E+01 -.28541119448E+01 -.28701620982E+01 -.28598597890E+01
 -.28256663106E+01 -.28055914089E+01 -.28127569681E+01 -.28439209467E+01 -.29257271911E+01
 -.30490731382E+01 -.32240533495E+01 -.34339404820E+01 -.36697059254E+01 -.39107096178E+01
 -.41139626418E+01 -.43223171494E+01 -.44433531715E+01 -.44889304376E+01 -.44341515422E+01
 -.43161816993E+01 -.41625563312E+01 -.39393395647E+01 -.37650387726E+01 -.34426854563E+01
 -.31572195739E+01 -.30446502321E+01 -.30941853762E+01 -.33347314608E+01 -.35945495420E+01
 -.37417839732E+01 -.39297791164E+01 -.40209444485E+01 -.40746841874E+01 -.40657657791E+01
 -.39732404185E+01 -.38418398768E+01 -.36971287561E+01 -.35182159775E+01 -.33347774276E+01
 -.31779502593E+01 -.30490731382E+01 -.29687129477E+01 -.29307141193E+01 -.29371674256E+01
 -.29749480351E+01 -.30295134685E+01 -.31031805338E+01 -.31259627749E+01 -.31524587483E+01
 -.31453497363E+01 -.31298153669E+01 -.30830076014E+01 -.30010833416E+01 -.29556576138E+01
 -.28494919858E+01 -.29301175534E+01 -.30322608575E+01 -.35831314898E+01 -.40326498830E+01
 -.43405925929E+01 -.46324982493E+01 -.49980715344E+01 -.52425933083E+01 -.54433205705E+01
 -.55165379599E+01 -.54709496372E+01 -.53365583949E+01 -.50846729963E+01 -.47213349463E+01
 -.43386369004E+01 -.39463365352E+01 -.35642598028E+01 -.32240533495E+01 -.29307141193E+01
 -.26964254302E+01 -.25170271980E+01 -.23883690637E+01 -.23045419585E+01 -.22399416320E+01
 -.22358270822E+01 -.22249656299E+01 -.22410695173E+01 -.22586592850E+01 -.23090543789E+01
 -.24168153852E+01 -.25268813342E+01 -.27797984270E+01 -.29259990326E+01 -.31572195739E+01
 -.45877983361E+01 -.51628761664E+01 -.59020028558E+01 -.66067063772E+01 -.70938029920E+01
 -.74723969082E+01 -.76294709059E+01 -.76124059536E+01 -.74029512022E+01 -.69838144956E+01
 -.64579173440E+01 -.59055517834E+01 -.52655968685E+01 -.46189915616E+01 -.40021347144E+01
 -.34339404820E+01 -.29371674256E+01 -.25170271980E+01 -.21767606462E+01 -.19146135089E+01
 -.17217931300E+01 -.16087572096E+01 -.15261296007E+01 -.15307839086E+01 -.15841166080E+01
 -.17165818096E+01 -.19099134190E+01 -.21498159882E+01 -.25159557911E+01 -.28533538240E+01