 vasp.5.4.1 24Jun15 (build Mar  6 2017 20:45:23) complex                         
 executed on           IFC91_ompi date 2017.11.22  15:35:09
 running on    1 total cores
 distrk:  each k-point on    1 cores,    1 groups
 distr:  one band on NCORES_PER_BAND=   1 cores,    1 groups


--------------------------------------------------------------------------------------------------------


 INCAR:
 POTCAR:    PAW_PBE Al 04Jan2001                  
 POTCAR:    PAW_PBE Al 04Jan2001                  
   VRHFIN =Al: s2p1                                                             
   LEXCH  = PE                                                                  
   EATOM  =    53.5387 eV,    3.9350 Ry                                         
                                                                                
   TITEL  = PAW_PBE Al 04Jan2001                                                
   LULTRA =        F    use ultrasoft PP ?                                      
   IUNSCR =        1    unscreen: 0-lin 1-nonlin 2-no                           
   RPACOR =    1.500    partial core radius                                     
   POMASS =   26.981; ZVAL   =    3.000    mass and valenz                      
   RCORE  =    1.900    outmost cutoff radius                                   
   RWIGS  =    2.650; RWIGS  =    1.402    wigner-seitz radius (au A)           
   ENMAX  =  240.300; ENMIN  =  180.225 eV                                      
   ICORE  =        2    local potential                                         
   LCOR   =        T    correct aug charges                                     
   LPAW   =        T    paw PP                                                  
   EAUG   =  291.052                                                            
   DEXC   =    0.000                                                            
   RMAX   =    1.939    core radius for proj-oper                               
   RAUG   =    1.300    factor for augmentation sphere                          
   RDEP   =    1.966    radius for radial grids                                 
   RDEPT  =    1.856    core radius for aug-charge                              
                                                                                
   Atomic configuration                                                         
    6 entries                                                                   
     n  l   j            E        occ.                                          
     1  0  0.50     -1511.1048   2.0000                                         
     2  0  0.50      -108.1629   2.0000                                         
     2  1  1.50       -69.6402   6.0000                                         
     3  0  0.50        -7.7528   2.0000                                         
     3  1  1.50        -2.7121   1.0000                                         
     3  2  2.50        -2.7212   0.0000                                         
   Description                                                                  
     l       E           TYP  RCUT    TYP  RCUT                                 
     0     -7.7528455     23  1.900                                             
     0     -3.3096929     23  1.900                                             
     1     -2.7120682     23  1.900                                             
     1     13.6058260     23  1.900                                             
     2     -2.7211652      7  1.900                                             
  local pseudopotential read in
  partial core-charges read in
  partial kinetic energy density read in
  atomic valenz-charges read in
  non local Contribution for L=           0  read in
    real space projection operators read in
  non local Contribution for L=           0  read in
    real space projection operators read in
  non local Contribution for L=           1  read in
    real space projection operators read in
  non local Contribution for L=           1  read in
    real space projection operators read in
    PAW grid and wavefunctions read in

   number of l-projection  operators is LMAX  =           4
   number of lm-projection operators is LMMAX =           8

  PAW_PBE Al 04Jan2001                  :
 energy of atom  1       EATOM=  -53.5387
 kinetic energy error for atom=    0.0011 (will be added to EATOM!!)


 POSCAR: Al_mp-134_primitive.cif                 
  positions in direct lattice
  velocities in cartesian coordinates
 exchange correlation table for  LEXCH =        8
   RHO(1)=    0.500       N(1)  =     2000
   RHO(2)=  100.500       N(2)  =     4000



--------------------------------------------------------------------------------------------------------


 ion  position               nearest neighbor table
   1  0.000  0.000  0.000-

  LATTYP: Found a face centered cubic cell.
 ALAT       =     4.0394783313
  
  Lattice vectors:
  
 A1 = (  -2.0197391656,   0.0000000000,   2.0197391656)
 A2 = (   0.0000000000,   2.0197391656,   2.0197391656)
 A3 = (  -2.0197391656,   2.0197391656,   0.0000000000)


Analysis of symmetry for initial positions (statically):
=====================================================================
 Subroutine PRICEL returns:
 Original cell was already a primitive cell.
 

 Routine SETGRP: Setting up the symmetry group for a 
 face centered cubic supercell.


 Subroutine GETGRP returns: Found 48 space group operations
 (whereof 48 operations were pure point group operations)
 out of a pool of 48 trial point group operations.


The static configuration has the point symmetry O_h .


Analysis of symmetry for dynamics (positions and initial velocities):
=====================================================================
 Subroutine PRICEL returns:
 Original cell was already a primitive cell.
 

 Routine SETGRP: Setting up the symmetry group for a 
 face centered cubic supercell.


 Subroutine GETGRP returns: Found 48 space group operations
 (whereof 48 operations were pure point group operations)
 out of a pool of 48 trial point group operations.


The dynamic configuration has the point symmetry O_h .


 irot  :   1
 --------------------------------------------------------------------
 isymop:   1   0   0
           0   1   0
           0   0   1

 gtrans:     0.0000000     0.0000000     0.0000000

 ptrans:     0.0000000     0.0000000     0.0000000
 rotmap:
 (   1->   1) 


 irot  :   2
 --------------------------------------------------------------------
 isymop:  -1   0   0
           0  -1   0
           0   0  -1

 gtrans:     0.0000000     0.0000000     0.0000000

 ptrans:     0.0000000     0.0000000     0.0000000
 rotmap:
 (   1->   1) 


 irot  :   3
 --------------------------------------------------------------------
 isymop:   0   0   1
           1   0   0
           0   1   0

 gtrans:     0.0000000     0.0000000     0.0000000

 ptrans:     0.0000000     0.0000000     0.0000000
 rotmap:
 (   1->   1) 


 irot  :   4
 --------------------------------------------------------------------
 isymop:   0   0  -1
          -1   0   0
           0  -1   0

 gtrans:     0.0000000     0.0000000     0.0000000

 ptrans:     0.0000000     0.0000000     0.0000000
 rotmap:
 (   1->   1) 


 irot  :   5
 --------------------------------------------------------------------
 isymop:   0   1   0
           0   0   1
           1   0   0

 gtrans:     0.0000000     0.0000000     0.0000000

 ptrans:     0.0000000     0.0000000     0.0000000
 rotmap:
 (   1->   1) 


 irot  :   6
 --------------------------------------------------------------------
 isymop:   0  -1   0
           0   0  -1
          -1   0   0

 gtrans:     0.0000000     0.0000000     0.0000000

 ptrans:     0.0000000     0.0000000     0.0000000
 rotmap:
 (   1->   1) 


 irot  :   7
 --------------------------------------------------------------------
 isymop:   1   1   1
           0   0  -1
          -1   0   0

 gtrans:     0.0000000     0.0000000     0.0000000

 ptrans:     0.0000000     0.0000000     0.0000000
 rotmap:
 (   1->   1) 


 irot  :   8
 --------------------------------------------------------------------
 isymop:  -1  -1  -1
           0   0   1
           1   0   0

 gtrans:     0.0000000     0.0000000     0.0000000

 ptrans:     0.0000000     0.0000000     0.0000000
 rotmap:
 (   1->   1) 


 irot  :   9
 --------------------------------------------------------------------
 isymop:   1   1   1
           0  -1   0
           0   0  -1

 gtrans:     0.0000000     0.0000000     0.0000000

 ptrans:     0.0000000     0.0000000     0.0000000
 rotmap:
 (   1->   1) 


 irot  :  10
 --------------------------------------------------------------------
 isymop:  -1  -1  -1
           0   1   0
           0   0   1

 gtrans:     0.0000000     0.0000000     0.0000000

 ptrans:     0.0000000     0.0000000     0.0000000
 rotmap:
 (   1->   1) 


 irot  :  11
 --------------------------------------------------------------------
 isymop:   1   1   1
          -1   0   0
           0  -1   0

 gtrans:     0.0000000     0.0000000     0.0000000

 ptrans:     0.0000000     0.0000000     0.0000000
 rotmap:
 (   1->   1) 


 irot  :  12
 --------------------------------------------------------------------
 isymop:  -1  -1  -1
           1   0   0
           0   1   0

 gtrans:     0.0000000     0.0000000     0.0000000

 ptrans:     0.0000000     0.0000000     0.0000000
 rotmap:
 (   1->   1) 


 irot  :  13
 --------------------------------------------------------------------
 isymop:   0   1   0
           1   0   0
          -1  -1  -1

 gtrans:     0.0000000     0.0000000     0.0000000

 ptrans:     0.0000000     0.0000000     0.0000000
 rotmap:
 (   1->   1) 


 irot  :  14
 --------------------------------------------------------------------
 isymop:   0  -1   0
          -1   0   0
           1   1   1

 gtrans:     0.0000000     0.0000000     0.0000000

 ptrans:     0.0000000     0.0000000     0.0000000
 rotmap:
 (   1->   1) 


 irot  :  15
 --------------------------------------------------------------------
 isymop:   1   0   0
           0   0   1
          -1  -1  -1

 gtrans:     0.0000000     0.0000000     0.0000000

 ptrans:     0.0000000     0.0000000     0.0000000
 rotmap:
 (   1->   1) 


 irot  :  16
 --------------------------------------------------------------------
 isymop:  -1   0   0
           0   0  -1
           1   1   1

 gtrans:     0.0000000     0.0000000     0.0000000

 ptrans:     0.0000000     0.0000000     0.0000000
 rotmap:
 (   1->   1) 


 irot  :  17
 --------------------------------------------------------------------
 isymop:   0   0   1
           0   1   0
          -1  -1  -1

 gtrans:     0.0000000     0.0000000     0.0000000

 ptrans:     0.0000000     0.0000000     0.0000000
 rotmap:
 (   1->   1) 


 irot  :  18
 --------------------------------------------------------------------
 isymop:   0   0  -1
           0  -1   0
           1   1   1

 gtrans:     0.0000000     0.0000000     0.0000000

 ptrans:     0.0000000     0.0000000     0.0000000
 rotmap:
 (   1->   1) 


 irot  :  19
 --------------------------------------------------------------------
 isymop:   0   0  -1
           1   1   1
           0  -1   0

 gtrans:     0.0000000     0.0000000     0.0000000

 ptrans:     0.0000000     0.0000000     0.0000000
 rotmap:
 (   1->   1) 


 irot  :  20
 --------------------------------------------------------------------
 isymop:   0   0   1
          -1  -1  -1
           0   1   0

 gtrans:     0.0000000     0.0000000     0.0000000

 ptrans:     0.0000000     0.0000000     0.0000000
 rotmap:
 (   1->   1) 


 irot  :  21
 --------------------------------------------------------------------
 isymop:   0  -1   0
           1   1   1
          -1   0   0

 gtrans:     0.0000000     0.0000000     0.0000000

 ptrans:     0.0000000     0.0000000     0.0000000
 rotmap:
 (   1->   1) 


 irot  :  22
 --------------------------------------------------------------------
 isymop:   0   1   0
          -1  -1  -1
           1   0   0

 gtrans:     0.0000000     0.0000000     0.0000000

 ptrans:     0.0000000     0.0000000     0.0000000
 rotmap:
 (   1->   1) 


 irot  :  23
 --------------------------------------------------------------------
 isymop:  -1   0   0
           1   1   1
           0   0  -1

 gtrans:     0.0000000     0.0000000     0.0000000

 ptrans:     0.0000000     0.0000000     0.0000000
 rotmap:
 (   1->   1) 


 irot  :  24
 --------------------------------------------------------------------
 isymop:   1   0   0
          -1  -1  -1
           0   0   1

 gtrans:     0.0000000     0.0000000     0.0000000

 ptrans:     0.0000000     0.0000000     0.0000000
 rotmap:
 (   1->   1) 


 irot  :  25
 --------------------------------------------------------------------
 isymop:  -1  -1  -1
           0   1   0
           1   0   0

 gtrans:     0.0000000     0.0000000     0.0000000

 ptrans:     0.0000000     0.0000000     0.0000000
 rotmap:
 (   1->   1) 


 irot  :  26
 --------------------------------------------------------------------
 isymop:   1   1   1
           0  -1   0
          -1   0   0

 gtrans:     0.0000000     0.0000000     0.0000000

 ptrans:     0.0000000     0.0000000     0.0000000
 rotmap:
 (   1->   1) 


 irot  :  27
 --------------------------------------------------------------------
 isymop:  -1  -1  -1
           1   0   0
           0   0   1

 gtrans:     0.0000000     0.0000000     0.0000000

 ptrans:     0.0000000     0.0000000     0.0000000
 rotmap:
 (   1->   1) 


 irot  :  28
 --------------------------------------------------------------------
 isymop:   1   1   1
          -1   0   0
           0   0  -1

 gtrans:     0.0000000     0.0000000     0.0000000

 ptrans:     0.0000000     0.0000000     0.0000000
 rotmap:
 (   1->   1) 


 irot  :  29
 --------------------------------------------------------------------
 isymop:  -1  -1  -1
           0   0   1
           0   1   0

 gtrans:     0.0000000     0.0000000     0.0000000

 ptrans:     0.0000000     0.0000000     0.0000000
 rotmap:
 (   1->   1) 


 irot  :  30
 --------------------------------------------------------------------
 isymop:   1   1   1
           0   0  -1
           0  -1   0

 gtrans:     0.0000000     0.0000000     0.0000000

 ptrans:     0.0000000     0.0000000     0.0000000
 rotmap:
 (   1->   1) 


 irot  :  31
 --------------------------------------------------------------------
 isymop:   0  -1   0
           0   0  -1
           1   1   1

 gtrans:     0.0000000     0.0000000     0.0000000

 ptrans:     0.0000000     0.0000000     0.0000000
 rotmap:
 (   1->   1) 


 irot  :  32
 --------------------------------------------------------------------
 isymop:   0   1   0
           0   0   1
          -1  -1  -1

 gtrans:     0.0000000     0.0000000     0.0000000

 ptrans:     0.0000000     0.0000000     0.0000000
 rotmap:
 (   1->   1) 


 irot  :  33
 --------------------------------------------------------------------
 isymop:  -1   0   0
           0  -1   0
           1   1   1

 gtrans:     0.0000000     0.0000000     0.0000000

 ptrans:     0.0000000     0.0000000     0.0000000
 rotmap:
 (   1->   1) 


 irot  :  34
 --------------------------------------------------------------------
 isymop:   1   0   0
           0   1   0
          -1  -1  -1

 gtrans:     0.0000000     0.0000000     0.0000000

 ptrans:     0.0000000     0.0000000     0.0000000
 rotmap:
 (   1->   1) 


 irot  :  35
 --------------------------------------------------------------------
 isymop:   0   0  -1
          -1   0   0
           1   1   1

 gtrans:     0.0000000     0.0000000     0.0000000

 ptrans:     0.0000000     0.0000000     0.0000000
 rotmap:
 (   1->   1) 


 irot  :  36
 --------------------------------------------------------------------
 isymop:   0   0   1
           1   0   0
          -1  -1  -1

 gtrans:     0.0000000     0.0000000     0.0000000

 ptrans:     0.0000000     0.0000000     0.0000000
 rotmap:
 (   1->   1) 


 irot  :  37
 --------------------------------------------------------------------
 isymop:   1   0   0
          -1  -1  -1
           0   1   0

 gtrans:     0.0000000     0.0000000     0.0000000

 ptrans:     0.0000000     0.0000000     0.0000000
 rotmap:
 (   1->   1) 


 irot  :  38
 --------------------------------------------------------------------
 isymop:  -1   0   0
           1   1   1
           0  -1   0

 gtrans:     0.0000000     0.0000000     0.0000000

 ptrans:     0.0000000     0.0000000     0.0000000
 rotmap:
 (   1->   1) 


 irot  :  39
 --------------------------------------------------------------------
 isymop:   0   0   1
          -1  -1  -1
           1   0   0

 gtrans:     0.0000000     0.0000000     0.0000000

 ptrans:     0.0000000     0.0000000     0.0000000
 rotmap:
 (   1->   1) 


 irot  :  40
 --------------------------------------------------------------------
 isymop:   0   0  -1
           1   1   1
          -1   0   0

 gtrans:     0.0000000     0.0000000     0.0000000

 ptrans:     0.0000000     0.0000000     0.0000000
 rotmap:
 (   1->   1) 


 irot  :  41
 --------------------------------------------------------------------
 isymop:   0   1   0
          -1  -1  -1
           0   0   1

 gtrans:     0.0000000     0.0000000     0.0000000

 ptrans:     0.0000000     0.0000000     0.0000000
 rotmap:
 (   1->   1) 


 irot  :  42
 --------------------------------------------------------------------
 isymop:   0  -1   0
           1   1   1
           0   0  -1

 gtrans:     0.0000000     0.0000000     0.0000000

 ptrans:     0.0000000     0.0000000     0.0000000
 rotmap:
 (   1->   1) 


 irot  :  43
 --------------------------------------------------------------------
 isymop:  -1   0   0
           0   0  -1
           0  -1   0

 gtrans:     0.0000000     0.0000000     0.0000000

 ptrans:     0.0000000     0.0000000     0.0000000
 rotmap:
 (   1->   1) 


 irot  :  44
 --------------------------------------------------------------------
 isymop:   1   0   0
           0   0   1
           0   1   0

 gtrans:     0.0000000     0.0000000     0.0000000

 ptrans:     0.0000000     0.0000000     0.0000000
 rotmap:
 (   1->   1) 


 irot  :  45
 --------------------------------------------------------------------
 isymop:   0  -1   0
          -1   0   0
           0   0  -1

 gtrans:     0.0000000     0.0000000     0.0000000

 ptrans:     0.0000000     0.0000000     0.0000000
 rotmap:
 (   1->   1) 


 irot  :  46
 --------------------------------------------------------------------
 isymop:   0   1   0
           1   0   0
           0   0   1

 gtrans:     0.0000000     0.0000000     0.0000000

 ptrans:     0.0000000     0.0000000     0.0000000
 rotmap:
 (   1->   1) 


 irot  :  47
 --------------------------------------------------------------------
 isymop:   0   0  -1
           0  -1   0
          -1   0   0

 gtrans:     0.0000000     0.0000000     0.0000000

 ptrans:     0.0000000     0.0000000     0.0000000
 rotmap:
 (   1->   1) 


 irot  :  48
 --------------------------------------------------------------------
 isymop:   0   0   1
           0   1   0
           1   0   0

 gtrans:     0.0000000     0.0000000     0.0000000

 ptrans:     0.0000000     0.0000000     0.0000000
 rotmap:
 (   1->   1) 


 KPOINTS: elephon created this file               

Automatic generation of k-mesh.
Space group operators:
 irot       det(A)        alpha          n_x          n_y          n_z        tau_x        tau_y        tau_z
    1     1.000000     0.000000     1.000000     0.000000     0.000000     0.000000     0.000000     0.000000
    2    -1.000000     0.000000     1.000000     0.000000     0.000000     0.000000     0.000000     0.000000
    3     1.000000   120.000000     0.577350    -0.577350    -0.577350     0.000000     0.000000     0.000000
    4    -1.000000   120.000000     0.577350    -0.577350    -0.577350     0.000000     0.000000     0.000000
    5     1.000000   120.000000    -0.577350     0.577350     0.577350     0.000000     0.000000     0.000000
    6    -1.000000   120.000000    -0.577350     0.577350     0.577350     0.000000     0.000000     0.000000
    7     1.000000    90.000000     0.000000     0.000000    -1.000000     0.000000     0.000000     0.000000
    8    -1.000000    90.000000     0.000000     0.000000    -1.000000     0.000000     0.000000     0.000000
    9     1.000000   180.000000     0.707107     0.000000    -0.707107     0.000000     0.000000     0.000000
   10    -1.000000   180.000000     0.707107     0.000000    -0.707107     0.000000     0.000000     0.000000
   11     1.000000    90.000000    -1.000000     0.000000     0.000000     0.000000     0.000000     0.000000
   12    -1.000000    90.000000    -1.000000     0.000000     0.000000     0.000000     0.000000     0.000000
   13     1.000000   180.000000     0.000000     0.000000     1.000000     0.000000     0.000000     0.000000
   14    -1.000000   180.000000     0.000000     0.000000     1.000000     0.000000     0.000000     0.000000
   15     1.000000   120.000000    -0.577350    -0.577350     0.577350     0.000000     0.000000     0.000000
   16    -1.000000   120.000000    -0.577350    -0.577350     0.577350     0.000000     0.000000     0.000000
   17     1.000000   120.000000    -0.577350    -0.577350    -0.577350     0.000000     0.000000     0.000000
   18    -1.000000   120.000000    -0.577350    -0.577350    -0.577350     0.000000     0.000000     0.000000
   19     1.000000    90.000000     0.000000     0.000000     1.000000     0.000000     0.000000     0.000000
   20    -1.000000    90.000000     0.000000     0.000000     1.000000     0.000000     0.000000     0.000000
   21     1.000000    90.000000     0.000000    -1.000000     0.000000     0.000000     0.000000     0.000000
   22    -1.000000    90.000000     0.000000    -1.000000     0.000000     0.000000     0.000000     0.000000
   23     1.000000   180.000000     0.000000     0.707107     0.707107     0.000000     0.000000     0.000000
   24    -1.000000   180.000000     0.000000     0.707107     0.707107     0.000000     0.000000     0.000000
   25     1.000000   120.000000     0.577350     0.577350     0.577350     0.000000     0.000000     0.000000
   26    -1.000000   120.000000     0.577350     0.577350     0.577350     0.000000     0.000000     0.000000
   27     1.000000   120.000000     0.577350    -0.577350     0.577350     0.000000     0.000000     0.000000
   28    -1.000000   120.000000     0.577350    -0.577350     0.577350     0.000000     0.000000     0.000000
   29     1.000000   180.000000     0.000000     1.000000     0.000000     0.000000     0.000000     0.000000
   30    -1.000000   180.000000     0.000000     1.000000     0.000000     0.000000     0.000000     0.000000
   31     1.000000    90.000000     1.000000     0.000000     0.000000     0.000000     0.000000     0.000000
   32    -1.000000    90.000000     1.000000     0.000000     0.000000     0.000000     0.000000     0.000000
   33     1.000000   180.000000     0.707107    -0.707107     0.000000     0.000000     0.000000     0.000000
   34    -1.000000   180.000000     0.707107    -0.707107     0.000000     0.000000     0.000000     0.000000
   35     1.000000    90.000000     0.000000     1.000000     0.000000     0.000000     0.000000     0.000000
   36    -1.000000    90.000000     0.000000     1.000000     0.000000     0.000000     0.000000     0.000000
   37     1.000000   120.000000     0.577350     0.577350    -0.577350     0.000000     0.000000     0.000000
   38    -1.000000   120.000000     0.577350     0.577350    -0.577350     0.000000     0.000000     0.000000
   39     1.000000   180.000000     1.000000     0.000000     0.000000     0.000000     0.000000     0.000000
   40    -1.000000   180.000000     1.000000     0.000000     0.000000     0.000000     0.000000     0.000000
   41     1.000000   120.000000    -0.577350     0.577350    -0.577350     0.000000     0.000000     0.000000
   42    -1.000000   120.000000    -0.577350     0.577350    -0.577350     0.000000     0.000000     0.000000
   43     1.000000   180.000000     0.707107     0.000000     0.707107     0.000000     0.000000     0.000000
   44    -1.000000   180.000000     0.707107     0.000000     0.707107     0.000000     0.000000     0.000000
   45     1.000000   180.000000     0.707107     0.707107     0.000000     0.000000     0.000000     0.000000
   46    -1.000000   180.000000     0.707107     0.707107     0.000000     0.000000     0.000000     0.000000
   47     1.000000   180.000000     0.000000    -0.707107     0.707107     0.000000     0.000000     0.000000
   48    -1.000000   180.000000     0.000000    -0.707107     0.707107     0.000000     0.000000     0.000000
 
 Subroutine IBZKPT returns following result:
 ===========================================
 
 Found    145 irreducible k-points:
 
 Following reciprocal coordinates:
            Coordinates               Weight
  0.000000  0.000000  0.000000      1.000000
  0.062500  0.000000  0.000000      8.000000
  0.125000  0.000000  0.000000      8.000000
  0.187500  0.000000  0.000000      8.000000
  0.250000  0.000000  0.000000      8.000000
  0.312500  0.000000  0.000000      8.000000
  0.375000  0.000000  0.000000      8.000000
  0.437500  0.000000  0.000000      8.000000
  0.500000  0.000000  0.000000      4.000000
  0.062500  0.062500  0.000000      6.000000
  0.125000  0.062500  0.000000     24.000000
  0.187500  0.062500  0.000000     24.000000
  0.250000  0.062500  0.000000     24.000000
  0.312500  0.062500  0.000000     24.000000
  0.375000  0.062500  0.000000     24.000000
  0.437500  0.062500  0.000000     24.000000
  0.500000  0.062500  0.000000     24.000000
 -0.437500  0.062500  0.000000     24.000000
 -0.375000  0.062500  0.000000     24.000000
 -0.312500  0.062500  0.000000     24.000000
 -0.250000  0.062500  0.000000     24.000000
 -0.187500  0.062500  0.000000     24.000000
 -0.125000  0.062500  0.000000     24.000000
 -0.062500  0.062500  0.000000     12.000000
  0.125000  0.125000  0.000000      6.000000
  0.187500  0.125000  0.000000     24.000000
  0.250000  0.125000  0.000000     24.000000
  0.312500  0.125000  0.000000     24.000000
  0.375000  0.125000  0.000000     24.000000
  0.437500  0.125000  0.000000     24.000000
  0.500000  0.125000  0.000000     24.000000
 -0.437500  0.125000  0.000000     24.000000
 -0.375000  0.125000  0.000000     24.000000
 -0.312500  0.125000  0.000000     24.000000
 -0.250000  0.125000  0.000000     24.000000
 -0.187500  0.125000  0.000000     24.000000
 -0.125000  0.125000  0.000000     12.000000
  0.187500  0.187500  0.000000      6.000000
  0.250000  0.187500  0.000000     24.000000
  0.312500  0.187500  0.000000     24.000000
  0.375000  0.187500  0.000000     24.000000
  0.437500  0.187500  0.000000     24.000000
  0.500000  0.187500  0.000000     24.000000
 -0.437500  0.187500  0.000000     24.000000
 -0.375000  0.187500  0.000000     24.000000
 -0.312500  0.187500  0.000000     24.000000
 -0.250000  0.187500  0.000000     24.000000
 -0.187500  0.187500  0.000000     12.000000
  0.250000  0.250000  0.000000      6.000000
  0.312500  0.250000  0.000000     24.000000
  0.375000  0.250000  0.000000     24.000000
  0.437500  0.250000  0.000000     24.000000
  0.500000  0.250000  0.000000     24.000000
 -0.437500  0.250000  0.000000     24.000000
 -0.375000  0.250000  0.000000     24.000000
 -0.312500  0.250000  0.000000     24.000000
 -0.250000  0.250000  0.000000     12.000000
  0.312500  0.312500  0.000000      6.000000
  0.375000  0.312500  0.000000     24.000000
  0.437500  0.312500  0.000000     24.000000
  0.500000  0.312500  0.000000     24.000000
 -0.437500  0.312500  0.000000     24.000000
 -0.375000  0.312500  0.000000     24.000000
 -0.312500  0.312500  0.000000     12.000000
  0.375000  0.375000  0.000000      6.000000
  0.437500  0.375000  0.000000     24.000000
  0.500000  0.375000  0.000000     24.000000
 -0.437500  0.375000  0.000000     24.000000
 -0.375000  0.375000  0.000000     12.000000
  0.437500  0.437500  0.000000      6.000000
  0.500000  0.437500  0.000000     24.000000
 -0.437500  0.437500  0.000000     12.000000
  0.500000  0.500000  0.000000      3.000000
  0.187500  0.125000  0.062500     24.000000
  0.250000  0.125000  0.062500     48.000000
  0.312500  0.125000  0.062500     48.000000
  0.375000  0.125000  0.062500     48.000000
  0.437500  0.125000  0.062500     48.000000
  0.500000  0.125000  0.062500     48.000000
 -0.437500  0.125000  0.062500     24.000000
  0.250000  0.187500  0.062500     24.000000
  0.312500  0.187500  0.062500     48.000000
  0.375000  0.187500  0.062500     48.000000
  0.437500  0.187500  0.062500     48.000000
  0.500000  0.187500  0.062500     48.000000
 -0.437500  0.187500  0.062500     48.000000
 -0.375000  0.187500  0.062500     48.000000
 -0.312500  0.187500  0.062500     48.000000
 -0.250000  0.187500  0.062500     48.000000
 -0.187500  0.187500  0.062500     48.000000
 -0.125000  0.187500  0.062500     24.000000
  0.312500  0.250000  0.062500     24.000000
  0.375000  0.250000  0.062500     48.000000
  0.437500  0.250000  0.062500     48.000000
  0.500000  0.250000  0.062500     48.000000
 -0.437500  0.250000  0.062500     48.000000
 -0.375000  0.250000  0.062500     48.000000
 -0.312500  0.250000  0.062500     48.000000
 -0.250000  0.250000  0.062500     48.000000
 -0.187500  0.250000  0.062500     24.000000
  0.375000  0.312500  0.062500     24.000000
  0.437500  0.312500  0.062500     48.000000
  0.500000  0.312500  0.062500     48.000000
 -0.437500  0.312500  0.062500     48.000000
 -0.375000  0.312500  0.062500     48.000000
 -0.312500  0.312500  0.062500     48.000000
 -0.250000  0.312500  0.062500     24.000000
  0.437500  0.375000  0.062500     24.000000
  0.500000  0.375000  0.062500     48.000000
 -0.437500  0.375000  0.062500     48.000000
 -0.375000  0.375000  0.062500     48.000000
 -0.312500  0.375000  0.062500     24.000000
  0.500000  0.437500  0.062500     24.000000
 -0.437500  0.437500  0.062500     48.000000
 -0.375000  0.437500  0.062500     24.000000
 -0.437500  0.500000  0.062500     12.000000
  0.375000  0.250000  0.125000     24.000000
  0.437500  0.250000  0.125000     48.000000
  0.500000  0.250000  0.125000     48.000000
 -0.437500  0.250000  0.125000     48.000000
 -0.375000  0.250000  0.125000     24.000000
  0.437500  0.312500  0.125000     24.000000
  0.500000  0.312500  0.125000     48.000000
 -0.437500  0.312500  0.125000     48.000000
 -0.375000  0.312500  0.125000     48.000000
 -0.312500  0.312500  0.125000     48.000000
 -0.250000  0.312500  0.125000     48.000000
 -0.187500  0.312500  0.125000     24.000000
  0.500000  0.375000  0.125000     24.000000
 -0.437500  0.375000  0.125000     48.000000
 -0.375000  0.375000  0.125000     48.000000
 -0.312500  0.375000  0.125000     48.000000
 -0.250000  0.375000  0.125000     24.000000
 -0.437500  0.437500  0.125000     24.000000
 -0.375000  0.437500  0.125000     48.000000
 -0.312500  0.437500  0.125000     24.000000
 -0.375000  0.500000  0.125000     12.000000
 -0.437500  0.375000  0.187500     24.000000
 -0.375000  0.375000  0.187500     48.000000
 -0.312500  0.375000  0.187500     24.000000
 -0.375000  0.437500  0.187500     24.000000
 -0.312500  0.437500  0.187500     48.000000
 -0.250000  0.437500  0.187500     24.000000
 -0.312500  0.500000  0.187500     12.000000
 -0.250000  0.500000  0.250000      6.000000
 
 Following cartesian coordinates:
            Coordinates               Weight
 -0.000000  0.000000  0.000000      1.000000
 -0.015472 -0.015472  0.015472      8.000000
 -0.030945 -0.030945  0.030945      8.000000
 -0.046417 -0.046417  0.046417      8.000000
 -0.061889 -0.061889  0.061889      8.000000
 -0.077361 -0.077361  0.077361      8.000000
 -0.092834 -0.092834  0.092834      8.000000
 -0.108306 -0.108306  0.108306      8.000000
 -0.123778 -0.123778  0.123778      4.000000
 -0.000000  0.000000  0.030945      6.000000
 -0.015472 -0.015472  0.046417     24.000000
 -0.030945 -0.030945  0.061889     24.000000
 -0.046417 -0.046417  0.077361     24.000000
 -0.061889 -0.061889  0.092834     24.000000
 -0.077361 -0.077361  0.108306     24.000000
 -0.092834 -0.092834  0.123778     24.000000
 -0.108306 -0.108306  0.139251     24.000000
  0.123778  0.123778 -0.092834     24.000000
  0.108306  0.108306 -0.077361     24.000000
  0.092834  0.092834 -0.061889     24.000000
  0.077361  0.077361 -0.046417     24.000000
  0.061889  0.061889 -0.030945     24.000000
  0.046417  0.046417 -0.015472     24.000000
  0.030945  0.030945  0.000000     12.000000
 -0.000000  0.000000  0.061889      6.000000
 -0.015472 -0.015472  0.077361     24.000000
 -0.030945 -0.030945  0.092834     24.000000
 -0.046417 -0.046417  0.108306     24.000000
 -0.061889 -0.061889  0.123778     24.000000
 -0.077361 -0.077361  0.139251     24.000000
 -0.092834 -0.092834  0.154723     24.000000
  0.139251  0.139251 -0.077361     24.000000
  0.123778  0.123778 -0.061889     24.000000
  0.108306  0.108306 -0.046417     24.000000
  0.092834  0.092834 -0.030945     24.000000
  0.077361  0.077361 -0.015472     24.000000
  0.061889  0.061889  0.000000     12.000000
 -0.000000  0.000000  0.092834      6.000000
 -0.015472 -0.015472  0.108306     24.000000
 -0.030945 -0.030945  0.123778     24.000000
 -0.046417 -0.046417  0.139251     24.000000
 -0.061889 -0.061889  0.154723     24.000000
 -0.077361 -0.077361  0.170195     24.000000
  0.154723  0.154723 -0.061889     24.000000
  0.139251  0.139251 -0.046417     24.000000
  0.123778  0.123778 -0.030945     24.000000
  0.108306  0.108306 -0.015472     24.000000
  0.092834  0.092834  0.000000     12.000000
 -0.000000  0.000000  0.123778      6.000000
 -0.015472 -0.015472  0.139251     24.000000
 -0.030945 -0.030945  0.154723     24.000000
 -0.046417 -0.046417  0.170195     24.000000
 -0.061889 -0.061889  0.185668     24.000000
  0.170195  0.170195 -0.046417     24.000000
  0.154723  0.154723 -0.030945     24.000000
  0.139251  0.139251 -0.015472     24.000000
  0.123778  0.123778  0.000000     12.000000
 -0.000000  0.000000  0.154723      6.000000
 -0.015472 -0.015472  0.170195     24.000000
 -0.030945 -0.030945  0.185668     24.000000
 -0.046417 -0.046417  0.201140     24.000000
  0.185668  0.185668 -0.030945     24.000000
  0.170195  0.170195 -0.015472     24.000000
  0.154723  0.154723  0.000000     12.000000
 -0.000000  0.000000  0.185668      6.000000
 -0.015472 -0.015472  0.201140     24.000000
 -0.030945 -0.030945  0.216612     24.000000
  0.201140  0.201140 -0.015472     24.000000
  0.185668  0.185668  0.000000     12.000000
 -0.000000  0.000000  0.216612      6.000000
 -0.015472 -0.015472  0.232084     24.000000
  0.216612  0.216612  0.000000     12.000000
 -0.000000  0.000000  0.247557      3.000000
 -0.030945  0.000000  0.061889     24.000000
 -0.046417 -0.015472  0.077361     48.000000
 -0.061889 -0.030945  0.092834     48.000000
 -0.077361 -0.046417  0.108306     48.000000
 -0.092834 -0.061889  0.123778     48.000000
 -0.108306 -0.077361  0.139251     48.000000
  0.123778  0.154723 -0.092834     24.000000
 -0.030945  0.000000  0.092834     24.000000
 -0.046417 -0.015472  0.108306     48.000000
 -0.061889 -0.030945  0.123778     48.000000
 -0.077361 -0.046417  0.139251     48.000000
 -0.092834 -0.061889  0.154723     48.000000
  0.139251  0.170195 -0.077361     48.000000
  0.123778  0.154723 -0.061889     48.000000
  0.108306  0.139251 -0.046417     48.000000
  0.092834  0.123778 -0.030945     48.000000
  0.077361  0.108306 -0.015472     48.000000
  0.061889  0.092834  0.000000     24.000000
 -0.030945  0.000000  0.123778     24.000000
 -0.046417 -0.015472  0.139251     48.000000
 -0.061889 -0.030945  0.154723     48.000000
 -0.077361 -0.046417  0.170195     48.000000
  0.154723  0.185668 -0.061889     48.000000
  0.139251  0.170195 -0.046417     48.000000
  0.123778  0.154723 -0.030945     48.000000
  0.108306  0.139251 -0.015472     48.000000
  0.092834  0.123778  0.000000     24.000000
 -0.030945  0.000000  0.154723     24.000000
 -0.046417 -0.015472  0.170195     48.000000
 -0.061889 -0.030945  0.185668     48.000000
  0.170195  0.201140 -0.046417     48.000000
  0.154723  0.185668 -0.030945     48.000000
  0.139251  0.170195 -0.015472     48.000000
  0.123778  0.154723  0.000000     24.000000
 -0.030945  0.000000  0.185668     24.000000
 -0.046417 -0.015472  0.201140     48.000000
  0.185668  0.216612 -0.030945     48.000000
  0.170195  0.201140 -0.015472     48.000000
  0.154723  0.185668  0.000000     24.000000
 -0.030945  0.000000  0.216612     24.000000
  0.201140  0.232084 -0.015472     48.000000
  0.185668  0.216612  0.000000     24.000000
  0.216612  0.247557  0.000000     12.000000
 -0.061889  0.000000  0.123778     24.000000
 -0.077361 -0.015472  0.139251     48.000000
 -0.092834 -0.030945  0.154723     48.000000
  0.139251  0.201140 -0.077361     48.000000
  0.123778  0.185668 -0.061889     24.000000
 -0.061889  0.000000  0.154723     24.000000
 -0.077361 -0.015472  0.170195     48.000000
  0.154723  0.216612 -0.061889     48.000000
  0.139251  0.201140 -0.046417     48.000000
  0.123778  0.185668 -0.030945     48.000000
  0.108306  0.170195 -0.015472     48.000000
  0.092834  0.154723  0.000000     24.000000
 -0.061889  0.000000  0.185668     24.000000
  0.170195  0.232084 -0.046417     48.000000
  0.154723  0.216612 -0.030945     48.000000
  0.139251  0.201140 -0.015472     48.000000
  0.123778  0.185668  0.000000     24.000000
  0.185668  0.247557 -0.030945     24.000000
  0.170195  0.232084 -0.015472     48.000000
  0.154723  0.216612  0.000000     24.000000
  0.185668  0.247557  0.000000     12.000000
  0.154723  0.247557 -0.061889     24.000000
  0.139251  0.232084 -0.046417     48.000000
  0.123778  0.216612 -0.030945     24.000000
  0.154723  0.247557 -0.030945     24.000000
  0.139251  0.232084 -0.015472     48.000000
  0.123778  0.216612  0.000000     24.000000
  0.154723  0.247557  0.000000     12.000000
  0.123778  0.247557  0.000000      6.000000
 


--------------------------------------------------------------------------------------------------------




 Dimension of arrays:
   k-points           NKPTS =    145   k-points in BZ     NKDIM =    145   number of bands    NBANDS=      5
   number of dos      NEDOS =    301   number of ions     NIONS =      1
   non local maximal  LDIM  =      4   non local SUM 2l+1 LMDIM =      8
   total plane-waves  NPLWV =   4096
   max r-space proj   IRMAX =      1   max aug-charges    IRDMAX=   9873
   dimension x,y,z NGX =    16 NGY =   16 NGZ =   16
   dimension x,y,z NGXF=    32 NGYF=   32 NGZF=   32
   support grid    NGXF=    32 NGYF=   32 NGZF=   32
   ions per type =               1
 NGX,Y,Z   is equivalent  to a cutoff of   9.31,  9.31,  9.31 a.u.
 NGXF,Y,Z  is equivalent  to a cutoff of  18.62, 18.62, 18.62 a.u.


 I would recommend the setting:
   dimension x,y,z NGX =    16 NGY =   16 NGZ =   16
 SYSTEM =  unknown system                          
 POSCAR =  Al_mp-134_primitive.cif                 

 Startparameter for this run:
   NWRITE =      3    write-flag & timer
   PREC   = accura    normal or accurate (medium, high low for compatibility)
   ISTART =      1    job   : 0-new  1-cont  2-samecut
   ICHARG =      1    charge: 1-file 2-atom 10-const
   ISPIN  =      1    spin polarized calculation?
   LNONCOLLINEAR =      F non collinear calculations
   LSORBIT =      F    spin-orbit coupling
   INIWAV =      1    electr: 0-lowe 1-rand  2-diag
   LASPH  =      F    aspherical Exc in radial PAW
   METAGGA=      F    non-selfconsistent MetaGGA calc.

 Electronic Relaxation 1
   ENCUT  =  300.0 eV  22.05 Ry    4.70 a.u.   4.03  4.03  4.03*2*pi/ulx,y,z
   ENINI  =  300.0     initial cutoff
   ENAUG  =  291.1 eV  augmentation charge cutoff
   NELM   =    100;   NELMIN=  2; NELMDL=  0     # of ELM steps 
   EDIFF  = 0.1E-07   stopping-criterion for ELM
   LREAL  =      F    real-space projection
   NLSPLINE    = F    spline interpolate recip. space projectors
   LCOMPAT=      F    compatible to vasp.4.4
   GGA_COMPAT  = T    GGA compatible to vasp.4.4-vasp.4.6
   LMAXPAW     = -100 max onsite density
   LMAXMIX     =    2 max onsite mixed and CHGCAR
   VOSKOWN=      0    Vosko Wilk Nusair interpolation
   ROPT   =    0.00000
 Ionic relaxation
   EDIFFG = 0.1E-06   stopping-criterion for IOM
   NSW    =      0    number of steps for IOM
   NBLOCK =      1;   KBLOCK =      1    inner block; outer block 
   IBRION =     -1    ionic relax: 0-MD 1-quasi-New 2-CG
   NFREE  =      0    steps in history (QN), initial steepest desc. (CG)
   ISIF   =      3    stress and relaxation
   IWAVPR =     10    prediction:  0-non 1-charg 2-wave 3-comb
   ISYM   =      2    0-nonsym 1-usesym 2-fastsym
   LCORR  =      T    Harris-Foulkes like correction to forces

   POTIM  = 0.5000    time-step for ionic-motion
   TEIN   =    0.0    initial temperature
   TEBEG  =    0.0;   TEEND  =   0.0 temperature during run
   SMASS  =  -3.00    Nose mass-parameter (am)
   estimated Nose-frequenzy (Omega)   =  0.10E-29 period in steps =****** mass=  -0.186E-27a.u.
   SCALEE = 1.0000    scale energy and forces
   NPACO  =    256;   APACO  = 16.0  distance and # of slots for P.C.
   PSTRESS=    0.0 pullay stress

  Mass of Ions in am
   POMASS =  26.98
  Ionic Valenz
   ZVAL   =   3.00
  Atomic Wigner-Seitz radii
   RWIGS  =  -1.00
  virtual crystal weights 
   VCA    =   1.00
   NELECT =       3.0000    total number of electrons
   NUPDOWN=      -1.0000    fix difference up-down

 DOS related values:
   EMIN   =  10.00;   EMAX   =-10.00  energy-range for DOS
   EFERMI =   0.00
   ISMEAR =     2;   SIGMA  =   0.10  broadening in eV -4-tet -1-fermi 0-gaus

 Electronic relaxation 2 (details)
   IALGO  =     38    algorithm
   LDIAG  =      T    sub-space diagonalisation (order eigenvalues)
   LSUBROT=      F    optimize rotation matrix (better conditioning)
   TURBO    =      0    0=normal 1=particle mesh
   IRESTART =      0    0=no restart 2=restart with 2 vectors
   NREBOOT  =      0    no. of reboots
   NMIN     =      0    reboot dimension
   EREF     =   0.00    reference energy to select bands
   IMIX   =      4    mixing-type and parameters
     AMIX     =   0.40;   BMIX     =  1.00
     AMIX_MAG =   1.60;   BMIX_MAG =  1.00
     AMIN     =   0.10
     WC   =   100.;   INIMIX=   1;  MIXPRE=   1;  MAXMIX= -45

 Intra band minimization:
   WEIMIN = 0.0000     energy-eigenvalue tresh-hold
   EBREAK =  0.50E-09  absolut break condition
   DEPER  =   0.30     relativ break condition  

   TIME   =   0.40     timestep for ELM

  volume/ion in A,a.u.               =      16.48       111.20
  Fermi-wavevector in a.u.,A,eV,Ry     =   0.927848  1.753378 11.713271  0.860901
  Thomas-Fermi vector in A             =   2.053961

 Write flags
   LWAVE  =      T    write WAVECAR
   LCHARG =      T    write CHGCAR
   LVTOT  =      T    write LOCPOT, total local potential
   LVHAR  =      F    write LOCPOT, Hartree potential only
   LELF   =      F    write electronic localiz. function (ELF)
   LORBIT =      0    0 simple, 1 ext, 2 COOP (PROOUT)


 Dipole corrections
   LMONO  =      F    monopole corrections only (constant potential shift)
   LDIPOL =      F    correct potential (dipole corrections)
   IDIPOL =      0    1-x, 2-y, 3-z, 4-all directions 
   EPSILON=  1.0000000 bulk dielectric constant

 Exchange correlation treatment:
   GGA     =    --    GGA type
   LEXCH   =     8    internal setting for exchange type
   VOSKOWN=      0    Vosko Wilk Nusair interpolation
   LHFCALC =     F    Hartree Fock is set to
   LHFONE  =     F    Hartree Fock one center treatment
   AEXX    =    0.0000 exact exchange contribution

 Linear response parameters
   LEPSILON=     F    determine dielectric tensor
   LRPA    =     F    only Hartree local field effects (RPA)
   LNABLA  =     F    use nabla operator in PAW spheres
   LVEL    =     F    velocity operator in full k-point grid
   LINTERFAST=   F  fast interpolation
   KINTER  =     0    interpolate to denser k-point grid
   CSHIFT  =0.1000    complex shift for real part using Kramers Kronig
   OMEGAMAX=  -1.0    maximum frequency
   DEG_THRESHOLD= 0.2000000E-02 threshold for treating states as degnerate
   RTIME   =    0.100 relaxation time in fs

 Orbital magnetization related:
   ORBITALMAG=     F  switch on orbital magnetization
   LCHIMAG   =     F  perturbation theory with respect to B field
   DQ        =  0.001000  dq finite difference perturbation B field



--------------------------------------------------------------------------------------------------------


 Static calculation
 charge density and potential will be updated during run
 non-spin polarized calculation
 Variant of blocked Davidson
 Davidson routine will perform the subspace rotation
 perform sub-space diagonalisation
    after iterative eigenvector-optimisation
 modified Broyden-mixing scheme, WC =      100.0
 initial mixing is a Kerker type mixing with AMIX =  0.4000 and BMIX =      1.0000
 Hartree-type preconditioning will be used
 using additional bands            3
 reciprocal scheme for non local part
 use partial core corrections
 calculate Harris-corrections to forces   (improved forces if not selfconsistent)
 use gradient corrections 
 use of overlap-Matrix (Vanderbilt PP)
 Methfessel and Paxton  Order N= 2 SIGMA  =   0.10


--------------------------------------------------------------------------------------------------------


  energy-cutoff  :      300.00
  volume of cell :       16.48
      direct lattice vectors                 reciprocal lattice vectors
    -2.019739166  0.000000000  2.019739166    -0.247556718 -0.247556718  0.247556718
     0.000000000  2.019739166  2.019739166     0.247556718  0.247556718  0.247556718
    -2.019739166  2.019739166  0.000000000    -0.247556718  0.247556718 -0.247556718

  length of vectors
     2.856342521  2.856342521  2.856342521     0.428780814  0.428780814  0.428780814



 old parameters found on file WAVECAR:
  energy-cutoff  :      500.00
  volume of cell :        5.82
      direct lattice vectors                 reciprocal lattice vectors
    -1.428078669  0.000000000  1.428078669    -0.350120768 -0.350120768  0.350120768
     0.000000000  1.428078669  1.428078669     0.350120768  0.350120768  0.350120768
    -1.428078669  1.428078669  0.000000000    -0.350120768  0.350120768 -0.350120768

  length of vectors


 k-points in units of 2pi/SCALE and weight: elephon created this file               
  -0.00000000  0.00000000  0.00000000       0.000
  -0.01547229 -0.01547229  0.01547229       0.002
  -0.03094459 -0.03094459  0.03094459       0.002
  -0.04641688 -0.04641688  0.04641688       0.002
  -0.06188918 -0.06188918  0.06188918       0.002
  -0.07736147 -0.07736147  0.07736147       0.002
  -0.09283377 -0.09283377  0.09283377       0.002
  -0.10830606 -0.10830606  0.10830606       0.002
  -0.12377836 -0.12377836  0.12377836       0.001
  -0.00000000  0.00000000  0.03094459       0.001
  -0.01547229 -0.01547229  0.04641688       0.006
  -0.03094459 -0.03094459  0.06188918       0.006
  -0.04641688 -0.04641688  0.07736147       0.006
  -0.06188918 -0.06188918  0.09283377       0.006
  -0.07736147 -0.07736147  0.10830606       0.006
  -0.09283377 -0.09283377  0.12377836       0.006
  -0.10830606 -0.10830606  0.13925065       0.006
   0.12377836  0.12377836 -0.09283377       0.006
   0.10830606  0.10830606 -0.07736147       0.006
   0.09283377  0.09283377 -0.06188918       0.006
   0.07736147  0.07736147 -0.04641688       0.006
   0.06188918  0.06188918 -0.03094459       0.006
   0.04641688  0.04641688 -0.01547229       0.006
   0.03094459  0.03094459  0.00000000       0.003
  -0.00000000  0.00000000  0.06188918       0.001
  -0.01547229 -0.01547229  0.07736147       0.006
  -0.03094459 -0.03094459  0.09283377       0.006
  -0.04641688 -0.04641688  0.10830606       0.006
  -0.06188918 -0.06188918  0.12377836       0.006
  -0.07736147 -0.07736147  0.13925065       0.006
  -0.09283377 -0.09283377  0.15472295       0.006
   0.13925065  0.13925065 -0.07736147       0.006
   0.12377836  0.12377836 -0.06188918       0.006
   0.10830606  0.10830606 -0.04641688       0.006
   0.09283377  0.09283377 -0.03094459       0.006
   0.07736147  0.07736147 -0.01547229       0.006
   0.06188918  0.06188918  0.00000000       0.003
  -0.00000000  0.00000000  0.09283377       0.001
  -0.01547229 -0.01547229  0.10830606       0.006
  -0.03094459 -0.03094459  0.12377836       0.006
  -0.04641688 -0.04641688  0.13925065       0.006
  -0.06188918 -0.06188918  0.15472295       0.006
  -0.07736147 -0.07736147  0.17019524       0.006
   0.15472295  0.15472295 -0.06188918       0.006
   0.13925065  0.13925065 -0.04641688       0.006
   0.12377836  0.12377836 -0.03094459       0.006
   0.10830606  0.10830606 -0.01547229       0.006
   0.09283377  0.09283377  0.00000000       0.003
  -0.00000000  0.00000000  0.12377836       0.001
  -0.01547229 -0.01547229  0.13925065       0.006
  -0.03094459 -0.03094459  0.15472295       0.006
  -0.04641688 -0.04641688  0.17019524       0.006
  -0.06188918 -0.06188918  0.18566754       0.006
   0.17019524  0.17019524 -0.04641688       0.006
   0.15472295  0.15472295 -0.03094459       0.006
   0.13925065  0.13925065 -0.01547229       0.006
   0.12377836  0.12377836  0.00000000       0.003
  -0.00000000  0.00000000  0.15472295       0.001
  -0.01547229 -0.01547229  0.17019524       0.006
  -0.03094459 -0.03094459  0.18566754       0.006
  -0.04641688 -0.04641688  0.20113983       0.006
   0.18566754  0.18566754 -0.03094459       0.006
   0.17019524  0.17019524 -0.01547229       0.006
   0.15472295  0.15472295  0.00000000       0.003
  -0.00000000  0.00000000  0.18566754       0.001
  -0.01547229 -0.01547229  0.20113983       0.006
  -0.03094459 -0.03094459  0.21661213       0.006
   0.20113983  0.20113983 -0.01547229       0.006
   0.18566754  0.18566754  0.00000000       0.003
  -0.00000000  0.00000000  0.21661213       0.001
  -0.01547229 -0.01547229  0.23208442       0.006
   0.21661213  0.21661213  0.00000000       0.003
  -0.00000000  0.00000000  0.24755672       0.001
  -0.03094459  0.00000000  0.06188918       0.006
  -0.04641688 -0.01547229  0.07736147       0.012
  -0.06188918 -0.03094459  0.09283377       0.012
  -0.07736147 -0.04641688  0.10830606       0.012
  -0.09283377 -0.06188918  0.12377836       0.012
  -0.10830606 -0.07736147  0.13925065       0.012
   0.12377836  0.15472295 -0.09283377       0.006
  -0.03094459  0.00000000  0.09283377       0.006
  -0.04641688 -0.01547229  0.10830606       0.012
  -0.06188918 -0.03094459  0.12377836       0.012
  -0.07736147 -0.04641688  0.13925065       0.012
  -0.09283377 -0.06188918  0.15472295       0.012
   0.13925065  0.17019524 -0.07736147       0.012
   0.12377836  0.15472295 -0.06188918       0.012
   0.10830606  0.13925065 -0.04641688       0.012
   0.09283377  0.12377836 -0.03094459       0.012
   0.07736147  0.10830606 -0.01547229       0.012
   0.06188918  0.09283377  0.00000000       0.006
  -0.03094459  0.00000000  0.12377836       0.006
  -0.04641688 -0.01547229  0.13925065       0.012
  -0.06188918 -0.03094459  0.15472295       0.012
  -0.07736147 -0.04641688  0.17019524       0.012
   0.15472295  0.18566754 -0.06188918       0.012
   0.13925065  0.17019524 -0.04641688       0.012
   0.12377836  0.15472295 -0.03094459       0.012
   0.10830606  0.13925065 -0.01547229       0.012
   0.09283377  0.12377836  0.00000000       0.006
  -0.03094459  0.00000000  0.15472295       0.006
  -0.04641688 -0.01547229  0.17019524       0.012
  -0.06188918 -0.03094459  0.18566754       0.012
   0.17019524  0.20113983 -0.04641688       0.012
   0.15472295  0.18566754 -0.03094459       0.012
   0.13925065  0.17019524 -0.01547229       0.012
   0.12377836  0.15472295  0.00000000       0.006
  -0.03094459  0.00000000  0.18566754       0.006
  -0.04641688 -0.01547229  0.20113983       0.012
   0.18566754  0.21661213 -0.03094459       0.012
   0.17019524  0.20113983 -0.01547229       0.012
   0.15472295  0.18566754  0.00000000       0.006
  -0.03094459  0.00000000  0.21661213       0.006
   0.20113983  0.23208442 -0.01547229       0.012
   0.18566754  0.21661213  0.00000000       0.006
   0.21661213  0.24755672  0.00000000       0.003
  -0.06188918  0.00000000  0.12377836       0.006
  -0.07736147 -0.01547229  0.13925065       0.012
  -0.09283377 -0.03094459  0.15472295       0.012
   0.13925065  0.20113983 -0.07736147       0.012
   0.12377836  0.18566754 -0.06188918       0.006
  -0.06188918  0.00000000  0.15472295       0.006
  -0.07736147 -0.01547229  0.17019524       0.012
   0.15472295  0.21661213 -0.06188918       0.012
   0.13925065  0.20113983 -0.04641688       0.012
   0.12377836  0.18566754 -0.03094459       0.012
   0.10830606  0.17019524 -0.01547229       0.012
   0.09283377  0.15472295  0.00000000       0.006
  -0.06188918  0.00000000  0.18566754       0.006
   0.17019524  0.23208442 -0.04641688       0.012
   0.15472295  0.21661213 -0.03094459       0.012
   0.13925065  0.20113983 -0.01547229       0.012
   0.12377836  0.18566754  0.00000000       0.006
   0.18566754  0.24755672 -0.03094459       0.006
   0.17019524  0.23208442 -0.01547229       0.012
   0.15472295  0.21661213  0.00000000       0.006
   0.18566754  0.24755672  0.00000000       0.003
   0.15472295  0.24755672 -0.06188918       0.006
   0.13925065  0.23208442 -0.04641688       0.012
   0.12377836  0.21661213 -0.03094459       0.006
   0.15472295  0.24755672 -0.03094459       0.006
   0.13925065  0.23208442 -0.01547229       0.012
   0.12377836  0.21661213  0.00000000       0.006
   0.15472295  0.24755672  0.00000000       0.003
   0.12377836  0.24755672  0.00000000       0.001

 k-points in reciprocal lattice and weights: elephon created this file               
   0.00000000  0.00000000  0.00000000       0.000
   0.06250000  0.00000000  0.00000000       0.002
   0.12500000  0.00000000  0.00000000       0.002
   0.18750000  0.00000000  0.00000000       0.002
   0.25000000  0.00000000  0.00000000       0.002
   0.31250000  0.00000000  0.00000000       0.002
   0.37500000  0.00000000  0.00000000       0.002
   0.43750000  0.00000000  0.00000000       0.002
   0.50000000  0.00000000  0.00000000       0.001
   0.06250000  0.06250000  0.00000000       0.001
   0.12500000  0.06250000  0.00000000       0.006
   0.18750000  0.06250000  0.00000000       0.006
   0.25000000  0.06250000  0.00000000       0.006
   0.31250000  0.06250000  0.00000000       0.006
   0.37500000  0.06250000  0.00000000       0.006
   0.43750000  0.06250000  0.00000000       0.006
   0.50000000  0.06250000  0.00000000       0.006
  -0.43750000  0.06250000  0.00000000       0.006
  -0.37500000  0.06250000  0.00000000       0.006
  -0.31250000  0.06250000  0.00000000       0.006
  -0.25000000  0.06250000  0.00000000       0.006
  -0.18750000  0.06250000  0.00000000       0.006
  -0.12500000  0.06250000  0.00000000       0.006
  -0.06250000  0.06250000  0.00000000       0.003
   0.12500000  0.12500000  0.00000000       0.001
   0.18750000  0.12500000  0.00000000       0.006
   0.25000000  0.12500000  0.00000000       0.006
   0.31250000  0.12500000  0.00000000       0.006
   0.37500000  0.12500000  0.00000000       0.006
   0.43750000  0.12500000  0.00000000       0.006
   0.50000000  0.12500000  0.00000000       0.006
  -0.43750000  0.12500000  0.00000000       0.006
  -0.37500000  0.12500000  0.00000000       0.006
  -0.31250000  0.12500000  0.00000000       0.006
  -0.25000000  0.12500000  0.00000000       0.006
  -0.18750000  0.12500000  0.00000000       0.006
  -0.12500000  0.12500000  0.00000000       0.003
   0.18750000  0.18750000  0.00000000       0.001
   0.25000000  0.18750000  0.00000000       0.006
   0.31250000  0.18750000  0.00000000       0.006
   0.37500000  0.18750000  0.00000000       0.006
   0.43750000  0.18750000  0.00000000       0.006
   0.50000000  0.18750000  0.00000000       0.006
  -0.43750000  0.18750000  0.00000000       0.006
  -0.37500000  0.18750000  0.00000000       0.006
  -0.31250000  0.18750000  0.00000000       0.006
  -0.25000000  0.18750000  0.00000000       0.006
  -0.18750000  0.18750000  0.00000000       0.003
   0.25000000  0.25000000  0.00000000       0.001
   0.31250000  0.25000000  0.00000000       0.006
   0.37500000  0.25000000  0.00000000       0.006
   0.43750000  0.25000000  0.00000000       0.006
   0.50000000  0.25000000  0.00000000       0.006
  -0.43750000  0.25000000  0.00000000       0.006
  -0.37500000  0.25000000  0.00000000       0.006
  -0.31250000  0.25000000  0.00000000       0.006
  -0.25000000  0.25000000  0.00000000       0.003
   0.31250000  0.31250000  0.00000000       0.001
   0.37500000  0.31250000  0.00000000       0.006
   0.43750000  0.31250000  0.00000000       0.006
   0.50000000  0.31250000  0.00000000       0.006
  -0.43750000  0.31250000  0.00000000       0.006
  -0.37500000  0.31250000  0.00000000       0.006
  -0.31250000  0.31250000  0.00000000       0.003
   0.37500000  0.37500000  0.00000000       0.001
   0.43750000  0.37500000  0.00000000       0.006
   0.50000000  0.37500000  0.00000000       0.006
  -0.43750000  0.37500000  0.00000000       0.006
  -0.37500000  0.37500000  0.00000000       0.003
   0.43750000  0.43750000  0.00000000       0.001
   0.50000000  0.43750000  0.00000000       0.006
  -0.43750000  0.43750000  0.00000000       0.003
   0.50000000  0.50000000  0.00000000       0.001
   0.18750000  0.12500000  0.06250000       0.006
   0.25000000  0.12500000  0.06250000       0.012
   0.31250000  0.12500000  0.06250000       0.012
   0.37500000  0.12500000  0.06250000       0.012
   0.43750000  0.12500000  0.06250000       0.012
   0.50000000  0.12500000  0.06250000       0.012
  -0.43750000  0.12500000  0.06250000       0.006
   0.25000000  0.18750000  0.06250000       0.006
   0.31250000  0.18750000  0.06250000       0.012
   0.37500000  0.18750000  0.06250000       0.012
   0.43750000  0.18750000  0.06250000       0.012
   0.50000000  0.18750000  0.06250000       0.012
  -0.43750000  0.18750000  0.06250000       0.012
  -0.37500000  0.18750000  0.06250000       0.012
  -0.31250000  0.18750000  0.06250000       0.012
  -0.25000000  0.18750000  0.06250000       0.012
  -0.18750000  0.18750000  0.06250000       0.012
  -0.12500000  0.18750000  0.06250000       0.006
   0.31250000  0.25000000  0.06250000       0.006
   0.37500000  0.25000000  0.06250000       0.012
   0.43750000  0.25000000  0.06250000       0.012
   0.50000000  0.25000000  0.06250000       0.012
  -0.43750000  0.25000000  0.06250000       0.012
  -0.37500000  0.25000000  0.06250000       0.012
  -0.31250000  0.25000000  0.06250000       0.012
  -0.25000000  0.25000000  0.06250000       0.012
  -0.18750000  0.25000000  0.06250000       0.006
   0.37500000  0.31250000  0.06250000       0.006
   0.43750000  0.31250000  0.06250000       0.012
   0.50000000  0.31250000  0.06250000       0.012
  -0.43750000  0.31250000  0.06250000       0.012
  -0.37500000  0.31250000  0.06250000       0.012
  -0.31250000  0.31250000  0.06250000       0.012
  -0.25000000  0.31250000  0.06250000       0.006
   0.43750000  0.37500000  0.06250000       0.006
   0.50000000  0.37500000  0.06250000       0.012
  -0.43750000  0.37500000  0.06250000       0.012
  -0.37500000  0.37500000  0.06250000       0.012
  -0.31250000  0.37500000  0.06250000       0.006
   0.50000000  0.43750000  0.06250000       0.006
  -0.43750000  0.43750000  0.06250000       0.012
  -0.37500000  0.43750000  0.06250000       0.006
  -0.43750000  0.50000000  0.06250000       0.003
   0.37500000  0.25000000  0.12500000       0.006
   0.43750000  0.25000000  0.12500000       0.012
   0.50000000  0.25000000  0.12500000       0.012
  -0.43750000  0.25000000  0.12500000       0.012
  -0.37500000  0.25000000  0.12500000       0.006
   0.43750000  0.31250000  0.12500000       0.006
   0.50000000  0.31250000  0.12500000       0.012
  -0.43750000  0.31250000  0.12500000       0.012
  -0.37500000  0.31250000  0.12500000       0.012
  -0.31250000  0.31250000  0.12500000       0.012
  -0.25000000  0.31250000  0.12500000       0.012
  -0.18750000  0.31250000  0.12500000       0.006
   0.50000000  0.37500000  0.12500000       0.006
  -0.43750000  0.37500000  0.12500000       0.012
  -0.37500000  0.37500000  0.12500000       0.012
  -0.31250000  0.37500000  0.12500000       0.012
  -0.25000000  0.37500000  0.12500000       0.006
  -0.43750000  0.43750000  0.12500000       0.006
  -0.37500000  0.43750000  0.12500000       0.012
  -0.31250000  0.43750000  0.12500000       0.006
  -0.37500000  0.50000000  0.12500000       0.003
  -0.43750000  0.37500000  0.18750000       0.006
  -0.37500000  0.37500000  0.18750000       0.012
  -0.31250000  0.37500000  0.18750000       0.006
  -0.37500000  0.43750000  0.18750000       0.006
  -0.31250000  0.43750000  0.18750000       0.012
  -0.25000000  0.43750000  0.18750000       0.006
  -0.31250000  0.50000000  0.18750000       0.003
  -0.25000000  0.50000000  0.25000000       0.001

 position of ions in fractional coordinates (direct lattice) 
   0.00000000  0.00000000  0.00000000

 position of ions in cartesian coordinates  (Angst):
   0.00000000  0.00000000  0.00000000



--------------------------------------------------------------------------------------------------------


 k-point  1 :   0.0000 0.0000 0.0000  plane waves:     181
 k-point  2 :   0.0625 0.0000 0.0000  plane waves:     178
 k-point  3 :   0.1250 0.0000 0.0000  plane waves:     178
 k-point  4 :   0.1875 0.0000 0.0000  plane waves:     193
 k-point  5 :   0.2500 0.0000 0.0000  plane waves:     193
 k-point  6 :   0.3125 0.0000 0.0000  plane waves:     198
 k-point  7 :   0.3750 0.0000 0.0000  plane waves:     195
 k-point  8 :   0.4375 0.0000 0.0000  plane waves:     189
 k-point  9 :   0.5000 0.0000 0.0000  plane waves:     180
 k-point 10 :   0.0625 0.0625 0.0000  plane waves:     177
 k-point 11 :   0.1250 0.0625 0.0000  plane waves:     176
 k-point 12 :   0.1875 0.0625 0.0000  plane waves:     182
 k-point 13 :   0.2500 0.0625 0.0000  plane waves:     190
 k-point 14 :   0.3125 0.0625 0.0000  plane waves:     196
 k-point 15 :   0.3750 0.0625 0.0000  plane waves:     194
 k-point 16 :   0.4375 0.0625 0.0000  plane waves:     195
 k-point 17 :   0.5000 0.0625 0.0000  plane waves:     192
 k-point 18 :  -0.4375 0.0625 0.0000  plane waves:     191
 k-point 19 :  -0.3750 0.0625 0.0000  plane waves:     195
 k-point 20 :  -0.3125 0.0625 0.0000  plane waves:     195
 k-point 21 :  -0.2500 0.0625 0.0000  plane waves:     194
 k-point 22 :  -0.1875 0.0625 0.0000  plane waves:     189
 k-point 23 :  -0.1250 0.0625 0.0000  plane waves:     182
 k-point 24 :  -0.0625 0.0625 0.0000  plane waves:     176
 k-point 25 :   0.1250 0.1250 0.0000  plane waves:     177
 k-point 26 :   0.1875 0.1250 0.0000  plane waves:     187
 k-point 27 :   0.2500 0.1250 0.0000  plane waves:     193
 k-point 28 :   0.3125 0.1250 0.0000  plane waves:     196
 k-point 29 :   0.3750 0.1250 0.0000  plane waves:     196
 k-point 30 :   0.4375 0.1250 0.0000  plane waves:     196
 k-point 31 :   0.5000 0.1250 0.0000  plane waves:     193
 k-point 32 :  -0.4375 0.1250 0.0000  plane waves:     189
 k-point 33 :  -0.3750 0.1250 0.0000  plane waves:     189
 k-point 34 :  -0.3125 0.1250 0.0000  plane waves:     193
 k-point 35 :  -0.2500 0.1250 0.0000  plane waves:     193
 k-point 36 :  -0.1875 0.1250 0.0000  plane waves:     194
 k-point 37 :  -0.1250 0.1250 0.0000  plane waves:     186
 k-point 38 :   0.1875 0.1875 0.0000  plane waves:     186
 k-point 39 :   0.2500 0.1875 0.0000  plane waves:     193
 k-point 40 :   0.3125 0.1875 0.0000  plane waves:     195
 k-point 41 :   0.3750 0.1875 0.0000  plane waves:     192
 k-point 42 :   0.4375 0.1875 0.0000  plane waves:     195
 k-point 43 :   0.5000 0.1875 0.0000  plane waves:     192
 k-point 44 :  -0.4375 0.1875 0.0000  plane waves:     195
 k-point 45 :  -0.3750 0.1875 0.0000  plane waves:     194
 k-point 46 :  -0.3125 0.1875 0.0000  plane waves:     196
 k-point 47 :  -0.2500 0.1875 0.0000  plane waves:     197
 k-point 48 :  -0.1875 0.1875 0.0000  plane waves:     200
 k-point 49 :   0.2500 0.2500 0.0000  plane waves:     202
 k-point 50 :   0.3125 0.2500 0.0000  plane waves:     193
 k-point 51 :   0.3750 0.2500 0.0000  plane waves:     195
 k-point 52 :   0.4375 0.2500 0.0000  plane waves:     195
 k-point 53 :   0.5000 0.2500 0.0000  plane waves:     192
 k-point 54 :  -0.4375 0.2500 0.0000  plane waves:     193
 k-point 55 :  -0.3750 0.2500 0.0000  plane waves:     190
 k-point 56 :  -0.3125 0.2500 0.0000  plane waves:     194
 k-point 57 :  -0.2500 0.2500 0.0000  plane waves:     196
 k-point 58 :   0.3125 0.3125 0.0000  plane waves:     198
 k-point 59 :   0.3750 0.3125 0.0000  plane waves:     201
 k-point 60 :   0.4375 0.3125 0.0000  plane waves:     199
 k-point 61 :   0.5000 0.3125 0.0000  plane waves:     196
 k-point 62 :  -0.4375 0.3125 0.0000  plane waves:     192
 k-point 63 :  -0.3750 0.3125 0.0000  plane waves:     188
 k-point 64 :  -0.3125 0.3125 0.0000  plane waves:     190
 k-point 65 :   0.3750 0.3750 0.0000  plane waves:     198
 k-point 66 :   0.4375 0.3750 0.0000  plane waves:     199
 k-point 67 :   0.5000 0.3750 0.0000  plane waves:     198
 k-point 68 :  -0.4375 0.3750 0.0000  plane waves:     198
 k-point 69 :  -0.3750 0.3750 0.0000  plane waves:     194
 k-point 70 :   0.4375 0.4375 0.0000  plane waves:     194
 k-point 71 :   0.5000 0.4375 0.0000  plane waves:     195
 k-point 72 :  -0.4375 0.4375 0.0000  plane waves:     198
 k-point 73 :   0.5000 0.5000 0.0000  plane waves:     190
 k-point 74 :   0.1875 0.1250 0.0625  plane waves:     181
 k-point 75 :   0.2500 0.1250 0.0625  plane waves:     188
 k-point 76 :   0.3125 0.1250 0.0625  plane waves:     191
 k-point 77 :   0.3750 0.1250 0.0625  plane waves:     193
 k-point 78 :   0.4375 0.1250 0.0625  plane waves:     193
 k-point 79 :   0.5000 0.1250 0.0625  plane waves:     192
 k-point 80 :  -0.4375 0.1250 0.0625  plane waves:     194
 k-point 81 :   0.2500 0.1875 0.0625  plane waves:     188
 k-point 82 :   0.3125 0.1875 0.0625  plane waves:     194
 k-point 83 :   0.3750 0.1875 0.0625  plane waves:     193
 k-point 84 :   0.4375 0.1875 0.0625  plane waves:     195
 k-point 85 :   0.5000 0.1875 0.0625  plane waves:     196
 k-point 86 :  -0.4375 0.1875 0.0625  plane waves:     193
 k-point 87 :  -0.3750 0.1875 0.0625  plane waves:     195
 k-point 88 :  -0.3125 0.1875 0.0625  plane waves:     195
 k-point 89 :  -0.2500 0.1875 0.0625  plane waves:     195
 k-point 90 :  -0.1875 0.1875 0.0625  plane waves:     195
 k-point 91 :  -0.1250 0.1875 0.0625  plane waves:     192
 k-point 92 :   0.3125 0.2500 0.0625  plane waves:     194
 k-point 93 :   0.3750 0.2500 0.0625  plane waves:     194
 k-point 94 :   0.4375 0.2500 0.0625  plane waves:     195
 k-point 95 :   0.5000 0.2500 0.0625  plane waves:     194
 k-point 96 :  -0.4375 0.2500 0.0625  plane waves:     195
 k-point 97 :  -0.3750 0.2500 0.0625  plane waves:     195
 k-point 98 :  -0.3125 0.2500 0.0625  plane waves:     193
 k-point 99 :  -0.2500 0.2500 0.0625  plane waves:     195
 k-point ** :  -0.1875 0.2500 0.0625  plane waves:     193
 k-point ** :   0.3750 0.3125 0.0625  plane waves:     195
 k-point ** :   0.4375 0.3125 0.0625  plane waves:     198
 k-point ** :   0.5000 0.3125 0.0625  plane waves:     196
 k-point ** :  -0.4375 0.3125 0.0625  plane waves:     196
 k-point ** :  -0.3750 0.3125 0.0625  plane waves:     198
 k-point ** :  -0.3125 0.3125 0.0625  plane waves:     196
 k-point ** :  -0.2500 0.3125 0.0625  plane waves:     195
 k-point ** :   0.4375 0.3750 0.0625  plane waves:     198
 k-point ** :   0.5000 0.3750 0.0625  plane waves:     200
 k-point ** :  -0.4375 0.3750 0.0625  plane waves:     200
 k-point ** :  -0.3750 0.3750 0.0625  plane waves:     196
 k-point ** :  -0.3125 0.3750 0.0625  plane waves:     191
 k-point ** :   0.5000 0.4375 0.0625  plane waves:     200
 k-point ** :  -0.4375 0.4375 0.0625  plane waves:     200
 k-point ** :  -0.3750 0.4375 0.0625  plane waves:     199
 k-point ** :  -0.4375 0.5000 0.0625  plane waves:     198
 k-point ** :   0.3750 0.2500 0.1250  plane waves:     194
 k-point ** :   0.4375 0.2500 0.1250  plane waves:     196
 k-point ** :   0.5000 0.2500 0.1250  plane waves:     195
 k-point ** :  -0.4375 0.2500 0.1250  plane waves:     193
 k-point ** :  -0.3750 0.2500 0.1250  plane waves:     194
 k-point ** :   0.4375 0.3125 0.1250  plane waves:     195
 k-point ** :   0.5000 0.3125 0.1250  plane waves:     195
 k-point ** :  -0.4375 0.3125 0.1250  plane waves:     194
 k-point ** :  -0.3750 0.3125 0.1250  plane waves:     197
 k-point ** :  -0.3125 0.3125 0.1250  plane waves:     196
 k-point ** :  -0.2500 0.3125 0.1250  plane waves:     196
 k-point ** :  -0.1875 0.3125 0.1250  plane waves:     196
 k-point ** :   0.5000 0.3750 0.1250  plane waves:     197
 k-point ** :  -0.4375 0.3750 0.1250  plane waves:     198
 k-point ** :  -0.3750 0.3750 0.1250  plane waves:     198
 k-point ** :  -0.3125 0.3750 0.1250  plane waves:     197
 k-point ** :  -0.2500 0.3750 0.1250  plane waves:     197
 k-point ** :  -0.4375 0.4375 0.1250  plane waves:     198
 k-point ** :  -0.3750 0.4375 0.1250  plane waves:     199
 k-point ** :  -0.3125 0.4375 0.1250  plane waves:     197
 k-point ** :  -0.3750 0.5000 0.1250  plane waves:     196
 k-point ** :  -0.4375 0.3750 0.1875  plane waves:     198
 k-point ** :  -0.3750 0.3750 0.1875  plane waves:     196
 k-point ** :  -0.3125 0.3750 0.1875  plane waves:     198
 k-point ** :  -0.3750 0.4375 0.1875  plane waves:     197
 k-point ** :  -0.3125 0.4375 0.1875  plane waves:     201
 k-point ** :  -0.2500 0.4375 0.1875  plane waves:     202
 k-point ** :  -0.3125 0.5000 0.1875  plane waves:     202
 k-point ** :  -0.2500 0.5000 0.2500  plane waves:     200

 maximum and minimum number of plane-waves per node :       202      176

 maximum number of plane-waves:       202
 maximum index in each direction: 
   IXMAX=    4   IYMAX=    4   IZMAX=    4
   IXMIN=   -4   IYMIN=   -4   IZMIN=   -4

 WARNING: aliasing errors must be expected set NGX to  18 to avoid them
 WARNING: aliasing errors must be expected set NGY to  18 to avoid them
 WARNING: aliasing errors must be expected set NGZ to  18 to avoid them
 aliasing errors are usually negligible using standard VASP settings
 and one can safely disregard these warnings

 serial   3D FFT for wavefunctions
 parallel 3D FFT for charge:
    minimum data exchange during FFTs selected (reduces bandwidth)


 total amount of memory used by VASP on root node    37306. kBytes
========================================================================

   base      :      30000. kBytes
   nonl-proj :       1877. kBytes
   fftplans  :       1184. kBytes
   grid      :       1806. kBytes
   one-center:          3. kBytes
   wavefun   :       2436. kBytes

     INWAV:  cpu time    0.0120: real time    0.0112
 Broyden mixing: mesh for mixing (old mesh)
   NGX =  9   NGY =  9   NGZ =  9
  (NGX  = 32   NGY  = 32   NGZ  = 32)
  gives a total of    729 points

 initial charge density was supplied:
 number of electron       3.0000000 magnetization 
 keeping initial charge density in first step


--------------------------------------------------------------------------------------------------------


 Maximum index for augmentation-charges         9405 (set IRDMAX)


--------------------------------------------------------------------------------------------------------


 First call to EWALD:  gamma=   0.697
 Maximum number of real-space cells 3x 3x 3
 Maximum number of reciprocal cells 3x 3x 3

 FEWALD executed in parallel
    FEWALD:  cpu time    0.0000: real time    0.0014


----------------------------------------- Iteration    1(   1)  ---------------------------------------


    POTLOK:  cpu time    0.0200: real time    0.0184
    SETDIJ:  cpu time    0.0000: real time    0.0023
     EDDAV:  cpu time    0.4640: real time    0.4643
       DOS:  cpu time    0.0080: real time    0.0052
    CHARGE:  cpu time    0.0280: real time    0.0300
    MIXING:  cpu time    0.0000: real time    0.0005
    --------------------------------------------
      LOOP:  cpu time    0.5200: real time    0.5215

 eigenvalue-minimisations  :  1450
 total energy-change (2. order) :-0.3747821E+01  (-0.6807033E-02)
 number of electron       3.0000000 magnetization 
 augmentation part       -0.0380303 magnetization 

 Broyden mixing:
  rms(total) = 0.19052E-01    rms(broyden)= 0.19052E-01
  rms(prec ) = 0.19141E-01
  weight for this iteration     100.00

 Free energy of the ion-electron system (eV)
  ---------------------------------------------------
  alpha Z        PSCENC =        -0.20383069
  Ewald energy   TEWEN  =       -73.54778188
  -Hartree energ DENC   =        -0.10462937
  -exchange      EXHF   =         0.00000000
  -V(xc)+E(xc)   XCENC  =       -26.12921340
  PAW double counting   =       174.73551420     -142.79648291
  entropy T*S    EENTRO =         0.00012508
  eigenvalues    EBANDS =        10.76085352
  atomic energy  EATOM  =        53.53762400
  Solvation  Ediel_sol  =         0.00000000
  ---------------------------------------------------
  free energy    TOTEN  =        -3.74782145 eV

  energy without entropy =       -3.74794653  energy(sigma->0) =       -3.74785272


--------------------------------------------------------------------------------------------------------




 average (electrostatic) potential at core
  the test charge radii are     1.0406
  (the norm of the test charge is              1.0000)
       1 -72.6043



 E-fermi :   8.0616     XC(G=0): -10.2012     alpha+bet :-14.8958


 k-point     1 :       0.0000    0.0000    0.0000
  band No.  band energies     occupation 
      1      -3.1280      2.00000
      2      20.6808      0.00000
      3      20.6808      0.00000
      4      20.6808      0.00000
      5      22.1458      0.00000

 k-point     2 :       0.0625    0.0000    0.0000
  band No.  band energies     occupation 
      1      -3.0216      2.00000
      2      18.8787      0.00000
      3      20.2993      0.00000
      4      20.2994      0.00000
      5      22.6950      0.00000

 k-point     3 :       0.1250    0.0000    0.0000
  band No.  band energies     occupation 
      1      -2.7032      2.00000
      2      16.3530      0.00000
      3      19.7226      0.00000
      4      19.7226      0.00000
      5      22.7593      0.00000

 k-point     4 :       0.1875    0.0000    0.0000
  band No.  band energies     occupation 
      1      -2.1742      2.00000
      2      13.8463      0.00000
      3      19.2543      0.00000
      4      19.2543      0.00000
      5      22.5588      0.00000

 k-point     5 :       0.2500    0.0000    0.0000
  band No.  band energies     occupation 
      1      -1.4368      2.00000
      2      11.4616      0.00000
      3      18.9483      0.00000
      4      18.9484      0.00000
      5      22.3964      0.00000

 k-point     6 :       0.3125    0.0000    0.0000
  band No.  band energies     occupation 
      1      -0.4942      2.00000
      2       9.2245      0.00000
      3      18.8129      0.00000
      4      18.8130      0.00000
      5      21.7363      0.00000

 k-point     7 :       0.3750    0.0000    0.0000
  band No.  band energies     occupation 
      1       0.6497      2.00000
      2       7.1507      2.00000
      3      18.8551      0.00000
      4      18.8552      0.00000
      5      20.8119      0.00000

 k-point     8 :       0.4375    0.0000    0.0000
  band No.  band energies     occupation 
      1       1.9893      2.00000
      2       5.2515      2.00000
      3      19.0774      0.00000
      4      19.0774      0.00000
      5      20.0591      0.00000

 k-point     9 :       0.5000    0.0000    0.0000
  band No.  band energies     occupation 
      1       3.4180      2.00000
      2       3.6368      2.00000
      3      19.4412      0.00000
      4      19.4412      0.00000
      5      19.5196      0.00000

 k-point    10 :       0.0625    0.0625    0.0000
  band No.  band energies     occupation 
      1      -2.9862      2.00000
      2      19.4692      0.00000
      3      19.4692      0.00000
      4      19.7527      0.00000
      5      21.8094      0.00000

 k-point    11 :       0.1250    0.0625    0.0000
  band No.  band energies     occupation 
      1      -2.7386      2.00000
      2      17.2310      0.00000
      3      18.7549      0.00000
      4      19.8190      0.00000
      5      22.0225      0.00000

 k-point    12 :       0.1875    0.0625    0.0000
  band No.  band energies     occupation 
      1      -2.2798      2.00000
      2      14.7363      0.00000
      3      18.2019      0.00000
      4      19.5343      0.00000
      5      22.5187      0.00000

 k-point    13 :       0.2500    0.0625    0.0000
  band No.  band energies     occupation 
      1      -1.6120      2.00000
      2      12.3170      0.00000
      3      17.8237      0.00000
      4      19.2352      0.00000
      5      21.3915      0.00000

 k-point    14 :       0.3125    0.0625    0.0000
  band No.  band energies     occupation 
      1      -0.7381      2.00000
      2      10.0345      0.00000
      3      17.6215      0.00000
      4      19.0656      0.00000
      5      20.2278      0.00000

 k-point    15 :       0.3750    0.0625    0.0000
  band No.  band energies     occupation 
      1       0.3385      2.00000
      2       7.9087      2.01772
      3      17.6002      0.00000
      4      19.0540      0.00000
      5      19.2312      0.00000

 k-point    16 :       0.4375    0.0625    0.0000
  band No.  band energies     occupation 
      1       1.6127      2.00000
      2       5.9525      2.00000
      3      17.7583      0.00000
      4      18.3833      0.00000
      5      19.2450      0.00000

 k-point    17 :       0.5000    0.0625    0.0000
  band No.  band energies     occupation 
      1       3.0735      2.00000
      2       4.1812      2.00000
      3      17.7327      0.00000
      4      18.0975      0.00000
      5      19.6048      0.00000

 k-point    18 :      -0.4375    0.0625    0.0000
  band No.  band energies     occupation 
      1       2.5681      2.00000
      2       4.7484      2.00000
      3      17.2642      0.00000
      4      18.6174      0.00000
      5      20.1451      0.00000

 k-point    19 :      -0.3750    0.0625    0.0000
  band No.  band energies     occupation 
      1       1.1664      2.00000
      2       6.5844      2.00000
      3      16.9799      0.00000
      4      19.3119      0.00000
      5      20.3067      0.00000

 k-point    20 :      -0.3125    0.0625    0.0000
  band No.  band energies     occupation 
      1      -0.0426      2.00000
      2       8.5978      0.00000
      3      16.8810      0.00000
      4      20.0820      0.00000
      5      20.3096      0.00000

 k-point    21 :      -0.2500    0.0625    0.0000
  band No.  band energies     occupation 
      1      -1.0521      2.00000
      2      10.7759      0.00000
      3      16.9679      0.00000
      4      20.2422      0.00000
      5      21.2638      0.00000

 k-point    22 :      -0.1875    0.0625    0.0000
  band No.  band energies     occupation 
      1      -1.8577      2.00000
      2      13.1009      0.00000
      3      17.2406      0.00000
      4      20.4770      0.00000
      5      22.4202      0.00000

 k-point    23 :      -0.1250    0.0625    0.0000
  band No.  band energies     occupation 
      1      -2.4561      2.00000
      2      15.5337      0.00000
[...]
  band No.  band energies     occupation 
      1       2.2582      2.00000
      2       7.6198      2.00000
      3      13.0351      0.00000
      4      14.0930      0.00000
      5      18.4457      0.00000

 k-point    96 :      -0.4375    0.2500    0.0625
  band No.  band energies     occupation 
      1       3.6433      2.00000
      2       5.8105      2.00000
      3      12.3178      0.00000
      4      14.3531      0.00000
      5      18.7777      0.00000

 k-point    97 :      -0.3750    0.2500    0.0625
  band No.  band energies     occupation 
      1       4.1465      2.00000
      2       5.2400      2.00000
      3      11.7863      0.00000
      4      14.8202      0.00000
      5      19.2822      0.00000

 k-point    98 :      -0.3125    0.2500    0.0625
  band No.  band energies     occupation 
      1       2.7028      2.00000
      2       6.9648      2.00000
      3      11.4659      0.00000
      4      15.4808      0.00000
      5      19.9629      0.00000

 k-point    99 :      -0.2500    0.2500    0.0625
  band No.  band energies     occupation 
      1       1.4399      2.00000
      2       8.8097      0.00000
      3      11.4063      0.00000
      4      16.3280      0.00000
      5      20.8114      0.00000

 k-point   100 :      -0.1875    0.2500    0.0625
  band No.  band energies     occupation 
      1       0.3722      2.00000
      2      10.4318      0.00000
      3      11.9333      0.00000
      4      17.3591      0.00000
      5      21.8035      0.00000

 k-point   101 :       0.3750    0.3125    0.0625
  band No.  band energies     occupation 
      1       0.5094      2.00000
      2      12.6595      0.00000
      3      13.3818      0.00000
      4      13.9608      0.00000
      5      16.8485      0.00000

 k-point   102 :       0.4375    0.3125    0.0625
  band No.  band energies     occupation 
      1       1.4372      2.00000
      2      10.8782      0.00000
      3      12.2561      0.00000
      4      13.4114      0.00000
      5      17.3741      0.00000

 k-point   103 :       0.5000    0.3125    0.0625
  band No.  band energies     occupation 
      1       2.5609      2.00000
      2       8.9246      0.00000
      3      11.2782      0.00000
      4      13.3648      0.00000
      5      17.6346      0.00000

 k-point   104 :      -0.4375    0.3125    0.0625
  band No.  band energies     occupation 
      1       3.8711      2.00000
      2       7.0859      2.00000
      3      10.4805      0.00000
      4      13.5629      0.00000
      5      17.9487      0.00000

 k-point   105 :      -0.3750    0.3125    0.0625
  band No.  band energies     occupation 
      1       5.2433      2.00000
      2       5.5153      2.00000
      3       9.8932      0.00000
      4      13.9666      0.00000
      5      18.4116      0.00000

 k-point   106 :      -0.3125    0.3125    0.0625
  band No.  band energies     occupation 
      1       3.8847      2.00000
      2       6.9696      2.00000
      3       9.5701      0.00000
      4      14.5659      0.00000
      5      19.0454      0.00000

 k-point   107 :      -0.2500    0.3125    0.0625
  band No.  band energies     occupation 
      1       2.5668      2.00000
      2       8.3424      0.00134
      3       9.8505      0.00000
      4      15.3549      0.00000
      5      19.8502      0.00000

 k-point   108 :       0.4375    0.3750    0.0625
  band No.  band energies     occupation 
      1       2.0156      2.00000
      2      10.7284      0.00000
      3      12.0059      0.00000
      4      13.2638      0.00000
      5      16.2061      0.00000

 k-point   109 :       0.5000    0.3750    0.0625
  band No.  band energies     occupation 
      1       3.0615      2.00000
      2       9.6304      0.00000
      3      10.4057      0.00000
      4      12.8785      0.00000
      5      16.8601      0.00000

 k-point   110 :      -0.4375    0.3750    0.0625
  band No.  band energies     occupation 
      1       4.2853      2.00000
      2       8.4316      0.00001
      3       8.9279      0.00000
      4      12.9742      0.00000
      5      17.2509      0.00000

 k-point   111 :      -0.3750    0.3750    0.0625
  band No.  band energies     occupation 
      1       5.6321      2.00000
      2       6.7999      2.00000
      3       8.2562      0.00956
      4      13.3055      0.00000
      5      17.6965      0.00000

 k-point   112 :      -0.3125    0.3750    0.0625
  band No.  band energies     occupation 
      1       5.2503      2.00000
      2       6.7785      2.00000
      3       8.2486      0.00831
      4      13.8391      0.00000
      5      18.2887      0.00000

 k-point   113 :       0.5000    0.4375    0.0625
  band No.  band energies     occupation 
      1       3.7490      2.00000
      2       8.2667      0.00979
      3      11.6114      0.00000
      4      12.8820      0.00000
      5      15.8192      0.00000

 k-point   114 :      -0.4375    0.4375    0.0625
  band No.  band energies     occupation 
      1       4.8457      2.00000
      2       7.3837      2.00000
      3      10.1211      0.00000
      4      12.6201      0.00000
      5      16.6015      0.00000

 k-point   115 :      -0.3750    0.4375    0.0625
  band No.  band energies     occupation 
      1       5.7376      2.00000
      2       7.0735      2.00000
      3       8.4591      0.00000
      4      12.8454      0.00000
      5      17.1219      0.00000

 k-point   116 :      -0.4375    0.5000    0.0625
  band No.  band energies     occupation 
      1       5.2181      2.00000
      2       6.5537      2.00000
      3      11.4806      0.00000
      4      12.7555      0.00000
      5      15.6907      0.00000

 k-point   117 :       0.3750    0.2500    0.1250
  band No.  band energies     occupation 
      1      -0.3212      2.00000
      2      11.8702      0.00000
      3      13.2842      0.00000
      4      16.8152      0.00000
      5      20.1878      0.00000

 k-point   118 :       0.4375    0.2500    0.1250
  band No.  band energies     occupation 
      1       0.6136      2.00000
      2      10.1174      0.00000
      3      12.6680      0.00000
      4      15.6503      0.00000
      5      20.6251      0.00000

 k-point   119 :       0.5000    0.2500    0.1250
  band No.  band energies     occupation 
      1       1.7476      2.00000
      2       8.1525     -0.10193
      3      12.6033      0.00000
      4      14.6730      0.00000
      5      20.8155      0.00000

 k-point   120 :      -0.4375    0.2500    0.1250
  band No.  band energies     occupation 
      1       3.0742      2.00000
      2       6.2981      2.00000
      3      12.7753      0.00000
      4      13.8992      0.00000
      5      21.0791      0.00000

 k-point   121 :      -0.3750    0.2500    0.1250
  band No.  band energies     occupation 
      1       4.4650      2.00000
      2       4.7287      2.00000
      3      12.9959      0.00000
      4      13.4799      0.00000
      5      21.3397      0.00000

 k-point   122 :       0.4375    0.3125    0.1250
  band No.  band energies     occupation 
      1       0.9233      2.00000
      2      10.9566      0.00000
      3      12.3599      0.00000
      4      13.9388      0.00000
      5      19.3186      0.00000

 k-point   123 :       0.5000    0.3125    0.1250
  band No.  band energies     occupation 
      1       1.9851      2.00000
      2       9.3288      0.00000
      3      11.8369      0.00000
      4      12.9100      0.00000
      5      19.9042      0.00000

 k-point   124 :      -0.4375    0.3125    0.1250
  band No.  band energies     occupation 
      1       3.2397      2.00000
      2       7.4898      2.00000
      3      11.6948      0.00000
      4      12.2539      0.00000
      5      20.2404      0.00000

 k-point   125 :      -0.3750    0.3125    0.1250
  band No.  band energies     occupation 
      1       4.6679      2.00000
      2       5.7731      2.00000
      3      11.2174      0.00000
      4      12.3876      0.00000
      5      20.6511      0.00000

 k-point   126 :      -0.3125    0.3125    0.1250
  band No.  band energies     occupation 
      1       4.1818      2.00000
      2       6.3034      2.00000
      3      10.7927      0.00000
      4      12.8934      0.00000
      5      21.2037      0.00000

 k-point   127 :      -0.2500    0.3125    0.1250
  band No.  band energies     occupation 
      1       2.8030      2.00000
      2       8.0205      1.75513
      3      10.6099      0.00000
      4      13.6192      0.00000
      5      21.8911      0.00000

 k-point   128 :      -0.1875    0.3125    0.1250
  band No.  band energies     occupation 
      1       1.6105      2.00000
      2       9.5176      0.00000
      3      11.0149      0.00000
      4      14.5420      0.00000
      5      22.0204      0.00000

 k-point   129 :       0.5000    0.3750    0.1250
  band No.  band energies     occupation 
      1       2.4247      2.00000
      2      10.3032      0.00000
      3      11.0165      0.00000
      4      11.9251      0.00000
      5      18.6858      0.00000

 k-point   130 :      -0.4375    0.3750    0.1250
  band No.  band energies     occupation 
      1       3.6023      2.00000
      2       8.7921      0.00000
      3      10.1645      0.00000
      4      11.4870      0.00000
      5      19.4068      0.00000

 k-point   131 :      -0.3750    0.3750    0.1250
  band No.  band energies     occupation 
      1       4.9512      2.00000
      2       7.0866      2.00000
      3       9.4774      0.00000
      4      11.6490      0.00000
      5      19.8774      0.00000

 k-point   132 :      -0.3125    0.3750    0.1250
  band No.  band energies     occupation 
      1       5.4679      2.00000
      2       6.4495      2.00000
      3       9.0267      0.00000
      4      12.0930      0.00000
      5      20.4188      0.00000

 k-point   133 :      -0.2500    0.3750    0.1250
  band No.  band energies     occupation 
      1       4.0494      2.00000
      2       7.6904      1.99999
      3       9.1722      0.00000
      4      12.7556      0.00000
      5      21.0988      0.00000

 k-point   134 :      -0.4375    0.4375    0.1250
  band No.  band energies     occupation 
      1       4.1519      2.00000
      2       8.6500      0.00000
      3       9.9110      0.00000
      4      11.4434      0.00000
      5      18.3021      0.00000

 k-point   135 :      -0.3750    0.4375    0.1250
  band No.  band energies     occupation 
      1       5.3739      2.00000
      2       7.8760      1.99248
      3       8.5983      0.00000
      4      11.1863      0.00000
      5      19.1556      0.00000

 k-point   136 :      -0.3125    0.4375    0.1250
  band No.  band energies     occupation 
      1       6.3878      2.00000
      2       6.8942      2.00000
      3       7.8688      1.99083
      4      11.5074      0.00000
      5      19.7556      0.00000

 k-point   137 :      -0.3750    0.5000    0.1250
  band No.  band energies     occupation 
      1       5.6077      2.00000
      2       6.9588      2.00000
      3       9.7804      0.00000
      4      11.3040      0.00000
      5      18.1750      0.00000

 k-point   138 :      -0.4375    0.3750    0.1875
  band No.  band energies     occupation 
      1       3.1042      2.00000
      2       8.8649      0.00000
      3      10.3093      0.00000
      4      11.9031      0.00000
      5      21.4093      0.00000

 k-point   139 :      -0.3750    0.3750    0.1875
  band No.  band energies     occupation 
      1       4.4087      2.00000
      2       7.4926      2.00000
      3      10.0106      0.00000
      4      11.1339      0.00000
      5      22.1735      0.00000

 k-point   140 :      -0.3125    0.3750    0.1875
  band No.  band energies     occupation 
      1       5.7608      2.00000
      2       6.0230      2.00000
      3      10.1231      0.00000
      4      10.7583      0.00000
      5      22.5021      0.00000

 k-point   141 :      -0.3750    0.4375    0.1875
  band No.  band energies     occupation 
      1       4.8200      2.00000
      2       8.4734      0.00000
      3       9.1887      0.00000
      4      10.1835      0.00000
      5      21.0352      0.00000

 k-point   142 :      -0.3125    0.4375    0.1875
  band No.  band energies     occupation 
      1       6.1596      2.00000
      2       7.2185      2.00000
      3       8.6827      0.00000
      4       9.9724      0.00000
      5      21.9505      0.00000

 k-point   143 :      -0.2500    0.4375    0.1875
  band No.  band energies     occupation 
      1       5.7472      2.00000
      2       7.2994      2.00000
      3       8.7180      0.00000
      4      10.3949      0.00000
      5      22.5875      0.00000

 k-point   144 :      -0.3125    0.5000    0.1875
  band No.  band energies     occupation 
      1       6.2576      2.00000
      2       7.6043      2.00000
      3       8.3426      0.00133
      4       9.9533      0.00000
      5      20.9078      0.00000

 k-point   145 :      -0.2500    0.5000    0.2500
  band No.  band energies     occupation 
      1       7.1692      2.00000
      2       7.1692      2.00000
      3       8.1855     -0.06682
      4       9.1301      0.00000
      5      23.8773      0.00000


--------------------------------------------------------------------------------------------------------


 soft charge-density along one line, spin component           1
         0         1         2         3         4         5         6         7         8         9
 total charge-density along one line

 pseudopotential strength for first ion, spin component:           1
  8.444  14.391   0.000   0.000  -0.000   0.000   0.000  -0.000
 14.391  24.527   0.000   0.000  -0.000   0.000   0.000  -0.000
  0.000   0.000   1.988   0.000  -0.000   5.732   0.000  -0.000
  0.000   0.000   0.000   1.988  -0.000   0.000   5.732  -0.000
 -0.000  -0.000  -0.000  -0.000   1.988  -0.000  -0.000   5.732
  0.000   0.000   5.732   0.000  -0.000  16.438   0.000  -0.000
  0.000   0.000   0.000   5.732  -0.000   0.000  16.438  -0.000
 -0.000  -0.000  -0.000  -0.000   5.732  -0.000  -0.000  16.438
 total augmentation occupancy for first ion, spin component:           1
  3.434  -0.857   0.000   0.000   0.000   0.000   0.000   0.000
 -0.857   0.281   0.000   0.000   0.000   0.000   0.000   0.000
  0.000   0.000   1.192   0.000   0.000  -0.090   0.000   0.000
  0.000   0.000   0.000   1.192   0.000   0.000  -0.090   0.000
  0.000   0.000   0.000   0.000   1.192  -0.000   0.000  -0.090
  0.000   0.000  -0.090   0.000  -0.000   0.007   0.000   0.000
  0.000   0.000   0.000  -0.090   0.000   0.000   0.007  -0.000
  0.000   0.000   0.000   0.000  -0.090   0.000  -0.000   0.007


------------------------ aborting loop because EDIFF is reached ----------------------------------------


    CHARGE:  cpu time    0.0320: real time    0.0306
    FORLOC:  cpu time    0.0000: real time    0.0008
    FORNL :  cpu time    0.0240: real time    0.0227
    STRESS:  cpu time    0.1400: real time    0.1367
    FORCOR:  cpu time    0.0160: real time    0.0178
    FORHAR:  cpu time    0.0040: real time    0.0047
    MIXING:  cpu time    0.0000: real time    0.0005
    OFIELD:  cpu time    0.0000: real time    0.0000

  FORCE on cell =-STRESS in cart. coord.  units (eV):
  Direction    XX          YY          ZZ          XY          YZ          ZX
  --------------------------------------------------------------------------------------
  Alpha Z    -0.20383    -0.20383    -0.20383
  Ewald     -24.51593   -24.51593   -24.51593    -0.00000    -0.00000    -0.00000
  Hartree     0.03485     0.03485     0.03485    -0.00000     0.00000    -0.00000
  E(xc)      -8.57137    -8.57137    -8.57137    -0.00000     0.00000    -0.00000
  Local       0.34415     0.34415     0.34415     0.00000    -0.00000     0.00000
  n-local    18.69032    18.99529    19.05845    -0.49572     0.52157     0.58771
  augment    -1.01724    -1.01724    -1.01724    -0.00000     0.00000    -0.00000
  Kinetic    10.95937    12.16231    21.90252     9.57907    -6.24641    -8.38896
  Fock        0.00000     0.00000     0.00000     0.00000     0.00000     0.00000
  -------------------------------------------------------------------------------------
  Total      -0.00661    -0.00661    -0.00661     0.00000     0.00000     0.00000
  in kB      -0.64297    -0.64297    -0.64297     0.00000     0.00000     0.00000
  external pressure =       -0.64 kB  Pullay stress =        0.00 kB


 VOLUME and BASIS-vectors are now :
 -----------------------------------------------------------------------------
  energy-cutoff  :      300.00
  volume of cell :       16.48
      direct lattice vectors                 reciprocal lattice vectors
    -2.019739166  0.000000000  2.019739166    -0.247556718 -0.247556718  0.247556718
     0.000000000  2.019739166  2.019739166     0.247556718  0.247556718  0.247556718
    -2.019739166  2.019739166  0.000000000    -0.247556718  0.247556718 -0.247556718

  length of vectors
     2.856342521  2.856342521  2.856342521     0.428780814  0.428780814  0.428780814


 FORCES acting on ions
    electron-ion (+dipol)            ewald-force                    non-local-force                 convergence-correction
 -----------------------------------------------------------------------------------------------
   0.000E+00 0.000E+00 0.000E+00   0.543E-16 -.461E-17 0.367E-15   0.000E+00 -.404E-27 -.404E-27   0.000E+00 0.000E+00 0.000E+00
 -----------------------------------------------------------------------------------------------
   0.000E+00 0.000E+00 0.000E+00   0.543E-16 -.461E-17 0.367E-15   0.000E+00 -.404E-27 -.404E-27   0.000E+00 0.000E+00 0.000E+00


 POSITION                                       TOTAL-FORCE (eV/Angst)
 -----------------------------------------------------------------------------------
      0.00000      0.00000      0.00000        -0.000000      0.000000      0.000000
 -----------------------------------------------------------------------------------
    total drift:                                0.000000     -0.000000      0.000000


--------------------------------------------------------------------------------------------------------



  FREE ENERGIE OF THE ION-ELECTRON SYSTEM (eV)
  ---------------------------------------------------
  free  energy   TOTEN  =        -3.74783340 eV

  energy  without entropy=       -3.74795841  energy(sigma->0) =       -3.74786465



--------------------------------------------------------------------------------------------------------


    POTLOK:  cpu time    0.0200: real time    0.0191


--------------------------------------------------------------------------------------------------------


 writing wavefunctions
     LOOP+:  cpu time    3.0040: real time    3.0065
    4ORBIT:  cpu time    0.0000: real time    0.0000

 total amount of memory used by VASP on root node    37306. kBytes
========================================================================

   base      :      30000. kBytes
   nonl-proj :       1877. kBytes
   fftplans  :       1184. kBytes
   grid      :       1806. kBytes
   one-center:          3. kBytes
   wavefun   :       2436. kBytes

  
  
 General timing and accounting informations for this job:
 ========================================================
  
                  Total CPU time used (sec):        3.376
                            User time (sec):        3.364
                          System time (sec):        0.012
                         Elapsed time (sec):        3.394
  
                   Maximum memory used (kb):       34448.
                   Average memory used (kb):           0.
  
                          Minor page faults:         4243
                          Major page faults:            0
                 Voluntary context switches:           57
