<?xml version="1.0" encoding="ISO-8859-1"?>
<modeling>
 <generator>
  <i name="program" type="string">vasp </i>
  <i name="version" type="string">5.4.1  </i>
  <i name="subversion" type="string">24Jun15 (build Mar  6 2017 20:45:23) complex                          parallel </i>
  <i name="platform" type="string">IFC91_ompi </i>
  <i name="date" type="string">2017 11 22 </i>
  <i name="time" type="string">15:35:09 </i>
 </generator>
 <incar>
  <i type="string" name="PREC">accurate</i>
  <i type="string" name="ALGO"> Normal</i>
  <i type="int" name="ISPIN">     1</i>
  <i type="int" name="ICHARG">     1</i>
  <i type="int" name="NELM">   100</i>
  <i type="int" name="IBRION">    -1</i>
  <i name="EDIFF">      0.00000001</i>
  <i type="int" name="NSW">     0</i>
  <i type="int" name="ISIF">     3</i>
  <i name="ENCUT">    300.00000000</i>
  <i type="logical" name="LREAL"> F  </i>
  <i type="int" name="ISMEAR">     2</i>
  <i name="SIGMA">      0.10000000</i>
  <i type="int" name="NWRITE">     3</i>
  <i type="logical" name="LWAVE"> T  </i>
  <i type="logical" name="LVTOT"> T  </i>
  <i type="logical" name="LVHAR"> F  </i>
  <v type="int" name="KPOINT_BSE">    -1     0     0     0</v>
  <i type="int" name="NELM">   100</i>
 </incar>
 <kpoints>
  <generation param="Gamma">
   <v type="int" name="divisions">      16       16       16 </v>
   <v name="usershift">      0.00000000       0.00000000       0.00000000 </v>
   <v name="genvec1">      0.06250000       0.00000000       0.00000000 </v>
   <v name="genvec2">      0.00000000       0.06250000       0.00000000 </v>
   <v name="genvec3">      0.00000000       0.00000000       0.06250000 </v>
   <v name="shift">      0.00000000       0.00000000       0.00000000 </v>
  </generation>
  <varray name="kpointlist" >
   <v>       0.00000000       0.00000000       0.00000000 </v>
   <v>       0.06250000       0.00000000       0.00000000 </v>
   <v>       0.12500000       0.00000000       0.00000000 </v>
   <v>       0.18750000       0.00000000       0.00000000 </v>
   <v>       0.25000000       0.00000000       0.00000000 </v>
   <v>       0.31250000       0.00000000       0.00000000 </v>
   <v>       0.37500000       0.00000000       0.00000000 </v>
   <v>       0.43750000       0.00000000       0.00000000 </v>
   <v>       0.50000000       0.00000000       0.00000000 </v>
   <v>       0.06250000       0.06250000       0.00000000 </v>
   <v>       0.12500000       0.06250000       0.00000000 </v>
   <v>       0.18750000       0.06250000       0.00000000 </v>
   <v>       0.25000000       0.06250000       0.00000000 </v>
   <v>       0.31250000       0.06250000       0.00000000 </v>
   <v>       0.37500000       0.06250000       0.00000000 </v>
   <v>       0.43750000       0.06250000       0.00000000 </v>
   <v>       0.50000000       0.06250000       0.00000000 </v>
   <v>      -0.43750000       0.06250000       0.00000000 </v>
   <v>      -0.37500000       0.06250000       0.00000000 </v>
   <v>      -0.31250000       0.06250000       0.00000000 </v>
   <v>      -0.25000000       0.06250000       0.00000000 </v>
   <v>      -0.18750000       0.06250000       0.00000000 </v>
   <v>      -0.12500000       0.06250000       0.00000000 </v>
   <v>      -0.06250000       0.06250000       0.00000000 </v>
   <v>       0.12500000       0.12500000       0.00000000 </v>
   <v>       0.18750000       0.12500000       0.00000000 </v>
   <v>       0.25000000       0.12500000       0.00000000 </v>
   <v>       0.31250000       0.12500000       0.00000000 </v>
   <v>       0.37500000       0.12500000       0.00000000 </v>
   <v>       0.43750000       0.12500000       0.00000000 </v>
   <v>       0.50000000       0.12500000       0.00000000 </v>
   <v>      -0.43750000       0.12500000       0.00000000 </v>
   <v>      -0.37500000       0.12500000       0.00000000 </v>
   <v>      -0.31250000       0.12500000       0.00000000 </v>
   <v>      -0.25000000       0.12500000       0.00000000 </v>
   <v>      -0.18750000       0.12500000       0.00000000 </v>
   <v>      -0.12500000       0.12500000       0.00000000 </v>
   <v>       0.18750000       0.18750000       0.00000000 </v>
   <v>       0.25000000       0.18750000       0.00000000 </v>
   <v>       0.31250000       0.18750000       0.00000000 </v>
   <v>       0.37500000       0.18750000       0.00000000 </v>
   <v>       0.43750000       0.18750000       0.00000000 </v>
   <v>       0.50000000       0.18750000       0.00000000 </v>
   <v>      -0.43750000       0.18750000       0.00000000 </v>
   <v>      -0.37500000       0.18750000       0.00000000 </v>
   <v>      -0.31250000       0.18750000       0.00000000 </v>
   <v>      -0.25000000       0.18750000       0.00000000 </v>
   <v>      -0.18750000       0.18750000       0.00000000 </v>
   <v>       0.25000000       0.25000000       0.00000000 </v>
   <v>       0.31250000       0.25000000       0.00000000 </v>
   <v>       0.37500000       0.25000000       0.00000000 </v>
   <v>       0.43750000       0.25000000       0.00000000 </v>
   <v>       0.50000000       0.25000000       0.00000000 </v>
   <v>      -0.43750000       0.25000000       0.00000000 </v>
   <v>      -0.37500000       0.25000000       0.00000000 </v>
   <v>      -0.31250000       0.25000000       0.00000000 </v>
   <v>      -0.25000000       0.25000000       0.00000000 </v>
   <v>       0.31250000       0.31250000       0.00000000 </v>
   <v>       0.37500000       0.31250000       0.00000000 </v>
   <v>       0.43750000       0.31250000       0.00000000 </v>
   <v>       0.50000000       0.31250000       0.00000000 </v>
   <v>      -0.43750000       0.31250000       0.00000000 </v>
   <v>      -0.37500000       0.31250000       0.00000000 </v>
   <v>      -0.31250000       0.31250000       0.00000000 </v>
   <v>       0.37500000       0.37500000       0.00000000 </v>
   <v>       0.43750000       0.37500000       0.00000000 </v>
   <v>       0.50000000       0.37500000       0.00000000 </v>
   <v>      -0.43750000       0.37500000       0.00000000 </v>
   <v>      -0.37500000       0.37500000       0.00000000 </v>
   <v>       0.43750000       0.43750000       0.00000000 </v>
   <v>       0.50000000       0.43750000       0.00000000 </v>
   <v>      -0.43750000       0.43750000       0.00000000 </v>
   <v>       0.50000000       0.50000000       0.00000000 </v>
   <v>       0.18750000       0.12500000       0.06250000 </v>
   <v>       0.25000000       0.12500000       0.06250000 </v>
   <v>       0.31250000       0.12500000       0.06250000 </v>
   <v>       0.37500000       0.12500000       0.06250000 </v>
   <v>       0.43750000       0.12500000       0.06250000 </v>
   <v>       0.50000000       0.12500000       0.06250000 </v>
   <v>      -0.43750000       0.12500000       0.06250000 </v>
   <v>       0.25000000       0.18750000       0.06250000 </v>
   <v>       0.31250000       0.18750000       0.06250000 </v>
   <v>       0.37500000       0.18750000       0.06250000 </v>
   <v>       0.43750000       0.18750000       0.06250000 </v>
   <v>       0.50000000       0.18750000       0.06250000 </v>
   <v>      -0.43750000       0.18750000       0.06250000 </v>
   <v>      -0.37500000       0.18750000       0.06250000 </v>
   <v>      -0.31250000       0.18750000       0.06250000 </v>
   <v>      -0.25000000       0.18750000       0.06250000 </v>
   <v>      -0.18750000       0.18750000       0.06250000 </v>
   <v>      -0.12500000       0.18750000       0.06250000 </v>
   <v>       0.31250000       0.25000000       0.06250000 </v>
   <v>       0.37500000       0.25000000       0.06250000 </v>
   <v>       0.43750000       0.25000000       0.06250000 </v>
   <v>       0.50000000       0.25000000       0.06250000 </v>
   <v>      -0.43750000       0.25000000       0.06250000 </v>
   <v>      -0.37500000       0.25000000       0.06250000 </v>
   <v>      -0.31250000       0.25000000       0.06250000 </v>
   <v>      -0.25000000       0.25000000       0.06250000 </v>
   <v>      -0.18750000       0.25000000       0.06250000 </v>
   <v>       0.37500000       0.31250000       0.06250000 </v>
   <v>       0.43750000       0.31250000       0.06250000 </v>
   <v>       0.50000000       0.31250000       0.06250000 </v>
   <v>      -0.43750000       0.31250000       0.06250000 </v>
   <v>      -0.37500000       0.31250000       0.06250000 </v>
   <v>      -0.31250000       0.31250000       0.06250000 </v>
   <v>      -0.25000000       0.31250000       0.06250000 </v>
   <v>       0.43750000       0.37500000       0.06250000 </v>
   <v>       0.50000000       0.37500000       0.06250000 </v>
   <v>      -0.43750000       0.37500000       0.06250000 </v>
   <v>      -0.37500000       0.37500000       0.06250000 </v>
   <v>      -0.31250000       0.37500000       0.06250000 </v>
   <v>       0.50000000       0.43750000       0.06250000 </v>
   <v>      -0.43750000       0.43750000       0.06250000 </v>
   <v>      -0.37500000       0.43750000       0.06250000 </v>
   <v>      -0.43750000       0.50000000       0.06250000 </v>
   <v>       0.37500000       0.25000000       0.12500000 </v>
   <v>       0.43750000       0.25000000       0.12500000 </v>
   <v>       0.50000000       0.25000000       0.12500000 </v>
   <v>      -0.43750000       0.25000000       0.12500000 </v>
   <v>      -0.37500000       0.25000000       0.12500000 </v>
   <v>       0.43750000       0.31250000       0.12500000 </v>
   <v>       0.50000000       0.31250000       0.12500000 </v>
   <v>      -0.43750000       0.31250000       0.12500000 </v>
   <v>      -0.37500000       0.31250000       0.12500000 </v>
   <v>      -0.31250000       0.31250000       0.12500000 </v>
   <v>      -0.25000000       0.31250000       0.12500000 </v>
   <v>      -0.18750000       0.31250000       0.12500000 </v>
   <v>       0.50000000       0.37500000       0.12500000 </v>
   <v>      -0.43750000       0.37500000       0.12500000 </v>
   <v>      -0.37500000       0.37500000       0.12500000 </v>
   <v>      -0.31250000       0.37500000       0.12500000 </v>
   <v>      -0.25000000       0.37500000       0.12500000 </v>
   <v>      -0.43750000       0.43750000       0.12500000 </v>
   <v>      -0.37500000       0.43750000       0.12500000 </v>
   <v>      -0.31250000       0.43750000       0.12500000 </v>
   <v>      -0.37500000       0.50000000       0.12500000 </v>
   <v>      -0.43750000       0.37500000       0.18750000 </v>
   <v>      -0.37500000       0.37500000       0.18750000 </v>
   <v>      -0.31250000       0.37500000       0.18750000 </v>
   <v>      -0.37500000       0.43750000       0.18750000 </v>
   <v>      -0.31250000       0.43750000       0.18750000 </v>
   <v>      -0.25000000       0.43750000       0.18750000 </v>
   <v>      -0.31250000       0.50000000       0.18750000 </v>
   <v>      -0.25000000       0.50000000       0.25000000 </v>
  </varray>
  <varray name="weights" >
   <v>       0.00024414 </v>
   <v>       0.00195312 </v>
   <v>       0.00195312 </v>
   <v>       0.00195312 </v>
   <v>       0.00195312 </v>
   <v>       0.00195312 </v>
   <v>       0.00195312 </v>
   <v>       0.00195312 </v>
   <v>       0.00097656 </v>
   <v>       0.00146484 </v>
   <v>       0.00585938 </v>
   <v>       0.00585938 </v>
   <v>       0.00585938 </v>
   <v>       0.00585938 </v>
   <v>       0.00585938 </v>
   <v>       0.00585938 </v>
   <v>       0.00585938 </v>
   <v>       0.00585938 </v>
   <v>       0.00585938 </v>
   <v>       0.00585938 </v>
   <v>       0.00585938 </v>
   <v>       0.00585938 </v>
   <v>       0.00585938 </v>
   <v>       0.00292969 </v>
   <v>       0.00146484 </v>
   <v>       0.00585938 </v>
   <v>       0.00585938 </v>
   <v>       0.00585938 </v>
   <v>       0.00585938 </v>
   <v>       0.00585938 </v>
   <v>       0.00585938 </v>
   <v>       0.00585938 </v>
   <v>       0.00585938 </v>
   <v>       0.00585938 </v>
   <v>       0.00585938 </v>
   <v>       0.00585938 </v>
   <v>       0.00292969 </v>
   <v>       0.00146484 </v>
   <v>       0.00585938 </v>
   <v>       0.00585938 </v>
   <v>       0.00585938 </v>
   <v>       0.00585938 </v>
   <v>       0.00585938 </v>
   <v>       0.00585938 </v>
   <v>       0.00585938 </v>
   <v>       0.00585938 </v>
   <v>       0.00585938 </v>
   <v>       0.00292969 </v>
   <v>       0.00146484 </v>
   <v>       0.00585938 </v>
   <v>       0.00585938 </v>
   <v>       0.00585938 </v>
   <v>       0.00585938 </v>
   <v>       0.00585938 </v>
   <v>       0.00585938 </v>
   <v>       0.00585938 </v>
   <v>       0.00292969 </v>
   <v>       0.00146484 </v>
   <v>       0.00585938 </v>
   <v>       0.00585938 </v>
   <v>       0.00585938 </v>
   <v>       0.00585938 </v>
   <v>       0.00585938 </v>
   <v>       0.00292969 </v>
   <v>       0.00146484 </v>
   <v>       0.00585938 </v>
   <v>       0.00585938 </v>
   <v>       0.00585938 </v>
   <v>       0.00292969 </v>
   <v>       0.00146484 </v>
   <v>       0.00585938 </v>
   <v>       0.00292969 </v>
   <v>       0.00073242 </v>
   <v>       0.00585938 </v>
   <v>       0.01171875 </v>
   <v>       0.01171875 </v>
   <v>       0.01171875 </v>
   <v>       0.01171875 </v>
   <v>       0.01171875 </v>
   <v>       0.00585938 </v>
   <v>       0.00585938 </v>
   <v>       0.01171875 </v>
   <v>       0.01171875 </v>
   <v>       0.01171875 </v>
   <v>       0.01171875 </v>
   <v>       0.01171875 </v>
   <v>       0.01171875 </v>
   <v>       0.01171875 </v>
   <v>       0.01171875 </v>
   <v>       0.01171875 </v>
   <v>       0.00585938 </v>
   <v>       0.00585938 </v>
   <v>       0.01171875 </v>
   <v>       0.01171875 </v>
   <v>       0.01171875 </v>
   <v>       0.01171875 </v>
   <v>       0.01171875 </v>
   <v>       0.01171875 </v>
   <v>       0.01171875 </v>
   <v>       0.00585938 </v>
   <v>       0.00585938 </v>
   <v>       0.01171875 </v>
   <v>       0.01171875 </v>
   <v>       0.01171875 </v>
   <v>       0.01171875 </v>
   <v>       0.01171875 </v>
   <v>       0.00585938 </v>
   <v>       0.00585938 </v>
   <v>       0.01171875 </v>
   <v>       0.01171875 </v>
   <v>       0.01171875 </v>
   <v>       0.00585938 </v>
   <v>       0.00585938 </v>
   <v>       0.01171875 </v>
   <v>       0.00585938 </v>
   <v>       0.00292969 </v>
   <v>       0.00585938 </v>
   <v>       0.01171875 </v>
   <v>       0.01171875 </v>
   <v>       0.01171875 </v>
   <v>       0.00585938 </v>
   <v>       0.00585938 </v>
   <v>       0.01171875 </v>
   <v>       0.01171875 </v>
   <v>       0.01171875 </v>
   <v>       0.01171875 </v>
   <v>       0.01171875 </v>
   <v>       0.00585938 </v>
   <v>       0.00585938 </v>
   <v>       0.01171875 </v>
   <v>       0.01171875 </v>
   <v>       0.01171875 </v>
   <v>       0.00585938 </v>
   <v>       0.00585938 </v>
   <v>       0.01171875 </v>
   <v>       0.00585938 </v>
   <v>       0.00292969 </v>
   <v>       0.00585938 </v>
   <v>       0.01171875 </v>
   <v>       0.00585938 </v>
   <v>       0.00585938 </v>
   <v>       0.01171875 </v>
   <v>       0.00585938 </v>
   <v>       0.00292969 </v>
   <v>       0.00146484 </v>
  </varray>
 </kpoints>
 <parameters>
  <separator name="general" >
   <i type="string" name="SYSTEM">unknown system</i>
   <i type="logical" name="LCOMPAT"> F  </i>
  </separator>
  <separator name="electronic" >
   <i type="string" name="PREC">accura</i>
   <i name="ENMAX">    300.00000000</i>
   <i name="ENAUG">    291.05200000</i>
   <i name="EDIFF">      0.00000001</i>
   <i type="int" name="IALGO">    38</i>
   <i type="int" name="IWAVPR">    10</i>
   <i type="int" name="NBANDS">     5</i>
   <i name="NELECT">      3.00000000</i>
   <i type="int" name="TURBO">     0</i>
   <i type="int" name="IRESTART">     0</i>
   <i type="int" name="NREBOOT">     0</i>
   <i type="int" name="NMIN">     0</i>
   <i name="EREF">      0.00000000</i>
   <separator name="electronic smearing" >
    <i type="int" name="ISMEAR">     2</i>
    <i name="SIGMA">      0.10000000</i>
    <i name="KSPACING">      0.50000000</i>
    <i type="logical" name="KGAMMA"> T  </i>
   </separator>
   <separator name="electronic projectors" >
    <i type="logical" name="LREAL"> F  </i>
    <v name="ROPT">      0.00000000</v>
    <i type="int" name="LMAXPAW">  -100</i>
    <i type="int" name="LMAXMIX">     2</i>
    <i type="logical" name="NLSPLINE"> F  </i>
   </separator>
   <separator name="electronic startup" >
    <i type="int" name="ISTART">     1</i>
    <i type="int" name="ICHARG">     1</i>
    <i type="int" name="INIWAV">     1</i>
   </separator>
   <separator name="electronic spin" >
    <i type="int" name="ISPIN">     1</i>
    <i type="logical" name="LNONCOLLINEAR"> F  </i>
    <v name="MAGMOM">      1.00000000</v>
    <i name="NUPDOWN">     -1.00000000</i>
    <i type="logical" name="LSORBIT"> F  </i>
    <v name="SAXIS">      0.00000000      0.00000000      1.00000000</v>
    <i type="logical" name="LSPIRAL"> F  </i>
    <v name="QSPIRAL">      0.00000000      0.00000000      0.00000000</v>
    <i type="logical" name="LZEROZ"> F  </i>
   </separator>
   <separator name="electronic exchange-correlation" >
    <i type="logical" name="LASPH"> F  </i>
    <i type="logical" name="LMETAGGA"> F  </i>
   </separator>
   <separator name="electronic convergence" >
    <i type="int" name="NELM">   100</i>
    <i type="int" name="NELMDL">     0</i>
    <i type="int" name="NELMIN">     2</i>
    <i name="ENINI">    300.00000000</i>
    <separator name="electronic convergence detail" >
     <i type="logical" name="LDIAG"> T  </i>
     <i type="logical" name="LSUBROT"> F  </i>
     <i name="WEIMIN">      0.00000000</i>
     <i name="EBREAK">      0.00000000</i>
     <i name="DEPER">      0.30000000</i>
     <i type="int" name="NRMM">     4</i>
     <i name="TIME">      0.40000000</i>
    </separator>
   </separator>
   <separator name="electronic mixer" >
    <i name="AMIX">      0.40000000</i>
    <i name="BMIX">      1.00000000</i>
    <i name="AMIN">      0.10000000</i>
    <i name="AMIX_MAG">      1.60000000</i>
    <i name="BMIX_MAG">      1.00000000</i>
    <separator name="electronic mixer details" >
     <i type="int" name="IMIX">     4</i>
     <i type="logical" name="MIXFIRST"> F  </i>
     <i type="int" name="MAXMIX">   -45</i>
     <i name="WC">    100.00000000</i>
     <i type="int" name="INIMIX">     1</i>
     <i type="int" name="MIXPRE">     1</i>
     <i type="int" name="MREMOVE">     5</i>
    </separator>
   </separator>
   <separator name="electronic dipolcorrection" >
    <i type="logical" name="LDIPOL"> F  </i>
    <i type="logical" name="LMONO"> F  </i>
    <i type="int" name="IDIPOL">     0</i>
    <i name="EPSILON">      1.00000000</i>
    <v name="DIPOL">   -100.00000000   -100.00000000   -100.00000000</v>
    <i name="EFIELD">      0.00000000</i>
   </separator>
  </separator>
  <separator name="grids" >
   <i type="int" name="NGX">    16</i>
   <i type="int" name="NGY">    16</i>
   <i type="int" name="NGZ">    16</i>
   <i type="int" name="NGXF">    32</i>
   <i type="int" name="NGYF">    32</i>
   <i type="int" name="NGZF">    32</i>
   <i type="logical" name="ADDGRID"> F  </i>
  </separator>
  <separator name="ionic" >
   <i type="int" name="NSW">     0</i>
   <i type="int" name="IBRION">    -1</i>
   <i type="int" name="ISIF">     3</i>
   <i name="PSTRESS">      0.00000000</i>
   <i name="EDIFFG">      0.00000010</i>
   <i type="int" name="NFREE">     0</i>
   <i name="POTIM">      0.50000000</i>
   <i name="SMASS">     -3.00000000</i>
   <i name="SCALEE">      1.00000000</i>
  </separator>
  <separator name="ionic md" >
   <i name="TEBEG">      0.00010000</i>
   <i name="TEEND">      0.00010000</i>
   <i type="int" name="NBLOCK">     1</i>
   <i type="int" name="KBLOCK">     1</i>
   <i type="int" name="NPACO">   256</i>
   <i name="APACO">     16.00000000</i>
  </separator>
  <separator name="symmetry" >
   <i type="int" name="ISYM">     2</i>
   <i name="SYMPREC">      0.00001000</i>
  </separator>
  <separator name="dos" >
   <i type="logical" name="LORBIT"> T  </i>
   <v name="RWIGS">     -1.00000000</v>
   <i type="int" name="NEDOS">   301</i>
   <i name="EMIN">     10.00000000</i>
   <i name="EMAX">    -10.00000000</i>
   <i name="EFERMI">      0.00000000</i>
  </separator>
  <separator name="writing" >
   <i type="int" name="NWRITE">     3</i>
   <i type="logical" name="LWAVE"> T  </i>
   <i type="logical" name="LCHARG"> T  </i>
   <i type="logical" name="LPARD"> F  </i>
   <i type="logical" name="LVTOT"> T  </i>
   <i type="logical" name="LVHAR"> F  </i>
   <i type="logical" name="LELF"> F  </i>
   <i type="logical" name="LOPTICS"> F  </i>
   <v name="STM">      0.00000000      0.00000000      0.00000000      0.00000000      0.00000000      0.00000000      0.00000000</v>
  </separator>
  <separator name="performance" >
   <i type="int" name="NPAR">     1</i>
   <i type="int" name="NSIM">     4</i>
   <i type="int" name="NBLK">    -1</i>
   <i type="logical" name="LPLANE"> T  </i>
   <i type="logical" name="LSCALAPACK"> T  </i>
   <i type="logical" name="LSCAAWARE"> F  </i>
   <i type="logical" name="LSCALU"> F  </i>
   <i type="logical" name="LASYNC"> F  </i>
   <i type="logical" name="LORBITALREAL"> F  </i>
  </separator>
  <separator name="miscellaneous" >
   <i type="int" name="IDIOT">     3</i>
   <i type="logical" name="LMUSIC"> F  </i>
   <v name="POMASS">     26.98100000</v>
   <v name="DARWINR">      0.00000000</v>
   <v name="DARWINV">      1.00000000</v>
   <i type="logical" name="LCORR"> T  </i>
  </separator>
  <i type="logical" name="GGA_COMPAT"> T  </i>
  <i type="logical" name="LBERRY"> F  </i>
  <i type="int" name="ICORELEVEL">     0</i>
  <i type="logical" name="LDAU"> F  </i>
  <i type="int" name="I_CONSTRAINED_M">     0</i>
  <separator name="electronic exchange-correlation" >
   <i type="string" name="GGA">--</i>
   <i type="int" name="VOSKOWN">     0</i>
   <i type="logical" name="LHFCALC"> F  </i>
   <i type="string" name="PRECFOCK"></i>
   <i type="logical" name="LSYMGRAD"> F  </i>
   <i type="logical" name="LHFONE"> F  </i>
   <i type="logical" name="LRHFCALC"> F  </i>
   <i type="logical" name="LTHOMAS"> F  </i>
   <i type="logical" name="LMODELHF"> F  </i>
   <i name="ENCUT4O">     -1.00000000</i>
   <i type="int" name="EXXOEP">     0</i>
   <i type="int" name="FOURORBIT">     0</i>
   <i name="AEXX">      0.00000000</i>
   <i name="HFALPHA">      0.00000000</i>
   <i name="MCALPHA">      0.00000000</i>
   <i name="ALDAX">      1.00000000</i>
   <i name="AGGAX">      1.00000000</i>
   <i name="ALDAC">      1.00000000</i>
   <i name="AGGAC">      1.00000000</i>
   <i type="int" name="NKREDX">     1</i>
   <i type="int" name="NKREDY">     1</i>
   <i type="int" name="NKREDZ">     1</i>
   <i type="logical" name="SHIFTRED"> F  </i>
   <i type="logical" name="ODDONLY"> F  </i>
   <i type="logical" name="EVENONLY"> F  </i>
   <i type="int" name="LMAXFOCK">     0</i>
   <i type="int" name="NMAXFOCKAE">     0</i>
   <i type="logical" name="LFOCKAEDFT"> F  </i>
   <i name="HFSCREEN">      0.00000000</i>
   <i name="HFSCREENC">      0.00000000</i>
   <i type="int" name="NBANDSGWLOW">     0</i>
  </separator>
  <separator name="vdW DFT" >
   <i type="logical" name="LUSE_VDW"> F  </i>
   <i name="Zab_VDW">     -0.84910000</i>
   <i name="PARAM1">      0.12340000</i>
   <i name="PARAM2">      1.00000000</i>
   <i name="PARAM3">      0.00000000</i>
  </separator>
  <separator name="model GW" >
   <i type="int" name="MODEL_GW">     0</i>
   <i name="MODEL_EPS0">      9.88705858</i>
   <i name="MODEL_ALPHA">      1.00000000</i>
  </separator>
  <separator name="linear response parameters" >
   <i type="logical" name="LEPSILON"> F  </i>
   <i type="logical" name="LRPA"> F  </i>
   <i type="logical" name="LNABLA"> F  </i>
   <i type="logical" name="LVEL"> F  </i>
   <i type="int" name="KINTER">     0</i>
   <i name="CSHIFT">      0.10000000</i>
   <i name="OMEGAMAX">     -1.00000000</i>
   <i name="DEG_THRESHOLD">      0.00200000</i>
  </separator>
  <separator name="orbital magnetization" >
   <i type="logical" name="NUCIND"> F  </i>
   <v name="MAGPOS">      0.00000000      0.00000000      0.00000000</v>
   <i type="logical" name="LNICSALL"> T  </i>
   <i type="logical" name="ORBITALMAG"> F  </i>
   <i type="logical" name="LMAGBLOCH"> F  </i>
   <i type="logical" name="LCHIMAG"> F  </i>
   <i type="logical" name="LGAUGE"> T  </i>
   <i type="int" name="MAGATOM">     0</i>
   <v name="MAGDIPOL">      0.00000000      0.00000000      0.00000000</v>
   <v name="AVECCONST">      0.00000000      0.00000000      0.00000000</v>
  </separator>
  <separator name="response functions" >
   <i type="logical" name="LADDER"> F  </i>
   <i type="logical" name="LFXC"> F  </i>
   <i type="logical" name="LHARTREE"> T  </i>
   <i type="int" name="IBSE">     0</i>
   <v type="int" name="KPOINT">    -1     0     0     0</v>
   <i type="logical" name="LTCTE"> F  </i>
   <i type="logical" name="LTETE"> F  </i>
   <i type="logical" name="LTRIPLET"> F  </i>
   <i type="logical" name="LFXCEPS"> F  </i>
   <i type="logical" name="LFXHEG"> F  </i>
   <i type="int" name="NATURALO">     0</i>
   <i type="logical" name="L2ORDER"> F  </i>
   <i type="logical" name="LUSEW"> F  </i>
   <i name="ENCUTGW">     -2.00000000</i>
   <i name="ENCUTGWSOFT">     -2.00000000</i>
   <i name="ENCUTLF">     -1.00000000</i>
   <i type="int" name="LMAXMP2">    -1</i>
   <i name="SCISSOR">      0.00000000</i>
   <i type="int" name="NOMEGA">     0</i>
   <i type="int" name="NOMEGAR">     0</i>
   <i type="int" name="NBANDSGW">    -1</i>
   <i type="int" name="NBANDSO">    -1</i>
   <i type="int" name="NBANDSV">    -1</i>
   <i type="int" name="NELM">   100</i>
   <i type="int" name="NELMHF">     1</i>
   <i type="int" name="DIM">     3</i>
   <i type="int" name="ANTIRES">     0</i>
   <i name="OMEGAMAX">    -30.00000000</i>
   <i name="OMEGAMIN">    -30.00000000</i>
   <i name="OMEGATL">   -200.00000000</i>
   <i type="int" name="OMEGAGRID">     0</i>
   <i name="CSHIFT">     -0.10000000</i>
   <i type="logical" name="SELFENERGY"> F  </i>
   <i type="logical" name="LSPECTRAL"> F  </i>
   <i type="logical" name="LSPECTRALGW"> F  </i>
   <i type="logical" name="LSINGLES"> F  </i>
   <i type="logical" name="LFERMIGW"> F  </i>
   <i type="logical" name="ODDONLYGW"> F  </i>
   <i type="logical" name="EVENONLYGW"> F  </i>
   <i type="int" name="NKREDLFX">     1</i>
   <i type="int" name="NKREDLFY">     1</i>
   <i type="int" name="NKREDLFZ">     1</i>
   <i type="int" name="MAXMEM">  1800</i>
   <i type="int" name="TELESCOPE">     0</i>
   <i type="int" name="TAUPAR">     1</i>
   <i type="int" name="OMEGAPAR">    -1</i>
   <i name="LAMBDA">      1.00000000</i>
  </separator>
  <separator name="External order field" >
   <i name="OFIELD_KAPPA">      0.00000000</i>
   <v name="OFIELD_K">      0.00000000      0.00000000      0.00000000</v>
   <i name="OFIELD_Q6_NEAR">      0.00000000</i>
   <i name="OFIELD_Q6_FAR">      0.00000000</i>
   <i name="OFIELD_A">      0.00000000</i>
  </separator>
 </parameters>
 <atominfo>
  <atoms>       1 </atoms>
  <types>       1 </types>
  <array name="atoms" >
   <dimension dim="1">ion</dimension>
   <field type="string">element</field>
   <field type="int">atomtype</field>
   <set>
    <rc><c>Al</c><c>   1</c></rc>
   </set>
  </array>
  <array name="atomtypes" >
   <dimension dim="1">type</dimension>
   <field type="int">atomspertype</field>
   <field type="string">element</field>
   <field>mass</field>
   <field>valence</field>
   <field type="string">pseudopotential</field>
   <set>
    <rc><c>   1</c><c>Al</c><c>     26.98100000</c><c>      3.00000000</c><c>  PAW_PBE Al 04Jan2001                  </c></rc>
   </set>
  </array>
 </atominfo>
 <structure name="initialpos" >
  <crystal>
   <varray name="basis" >
    <v>      -2.01973917       0.00000000       2.01973917 </v>
    <v>       0.00000000       2.01973917       2.01973917 </v>
    <v>      -2.01973917       2.01973917       0.00000000 </v>
   </varray>
   <i name="volume">     16.47843097 </i>
   <varray name="rec_basis" >
    <v>      -0.24755672      -0.24755672       0.24755672 </v>
    <v>       0.24755672       0.24755672       0.24755672 </v>
    <v>      -0.24755672       0.24755672      -0.24755672 </v>
   </varray>
  </crystal>
  <varray name="positions" >
   <v>       0.00000000       0.00000000       0.00000000 </v>
  </varray>
 </structure>
 <calculation>
  <scstep>
   <time name="dav">    0.46    0.46</time>
   <time name="total">    0.52    0.52</time>
   <energy>
    <i name="alphaZ">     -0.20383069 </i>
    <i name="ewald">    -73.54778188 </i>
    <i name="hartreedc">     -0.10462937 </i>
    <i name="XCdc">    -26.12921340 </i>
    <i name="pawpsdc">    174.73551420 </i>
    <i name="pawaedc">   -142.79648291 </i>
    <i name="eentropy">      0.00012508 </i>
    <i name="bandstr">     10.76085352 </i>
    <i name="atom">     53.53762400 </i>
    <i name="e_fr_energy">     -3.74782145 </i>
    <i name="e_wo_entrp">     -3.74794653 </i>
    <i name="e_0_energy">     -3.74785272 </i>
   </energy>
  </scstep>
  <scstep>
   <time name="dav">    0.56    0.56</time>
   <time name="total">    0.61    0.61</time>
   <energy>
    <i name="e_fr_energy">     -3.74783276 </i>
    <i name="e_wo_entrp">     -3.74795781 </i>
    <i name="e_0_energy">     -3.74786402 </i>
   </energy>
  </scstep>
  <scstep>
   <time name="dav">    0.54    0.54</time>
   <time name="total">    0.60    0.59</time>
   <energy>
    <i name="e_fr_energy">     -3.74783232 </i>
    <i name="e_wo_entrp">     -3.74795731 </i>
    <i name="e_0_energy">     -3.74786357 </i>
   </energy>
  </scstep>
  <scstep>
   <time name="dav">    0.56    0.56</time>
   <time name="total">    0.62    0.61</time>
   <energy>
    <i name="e_fr_energy">     -3.74783341 </i>
    <i name="e_wo_entrp">     -3.74795842 </i>
    <i name="e_0_energy">     -3.74786466 </i>
   </energy>
  </scstep>
  <scstep>
   <time name="dav">    0.38    0.38</time>
   <time name="total">    0.40    0.40</time>
   <energy>
    <i name="alphaZ">     -0.20383069 </i>
    <i name="ewald">    -73.54778188 </i>
    <i name="hartreedc">     -0.10453730 </i>
    <i name="XCdc">    -26.12881670 </i>
    <i name="pawpsdc">    150.46852973 </i>
    <i name="pawaedc">   -118.52776140 </i>
    <i name="eentropy">      0.00012501 </i>
    <i name="bandstr">     10.75861582 </i>
    <i name="atom">     53.53762400 </i>
    <i name="e_fr_energy">     -3.74783340 </i>
    <i name="e_wo_entrp">     -3.74795841 </i>
    <i name="e_0_energy">     -3.74786465 </i>
   </energy>
  </scstep>
  <structure>
   <crystal>
    <varray name="basis" >
     <v>      -2.01973917       0.00000000       2.01973917 </v>
     <v>       0.00000000       2.01973917       2.01973917 </v>
     <v>      -2.01973917       2.01973917       0.00000000 </v>
    </varray>
    <i name="volume">     16.47843097 </i>
    <varray name="rec_basis" >
     <v>      -0.24755672      -0.24755672       0.24755672 </v>
     <v>       0.24755672       0.24755672       0.24755672 </v>
     <v>      -0.24755672       0.24755672      -0.24755672 </v>
    </varray>
   </crystal>
   <varray name="positions" >
    <v>       0.00000000       0.00000000       0.00000000 </v>
   </varray>
  </structure>
  <varray name="forces" >
   <v>      -0.00000000       0.00000000       0.00000000 </v>
  </varray>
  <varray name="stress" >
   <v>      -0.64297479       0.00000000       0.00000000 </v>
   <v>       0.00000000      -0.64297479      -0.00000000 </v>
   <v>      -0.00000000       0.00000000      -0.64297479 </v>
  </varray>
  <energy>
   <i name="e_fr_energy">     -3.74783340 </i>
   <i name="e_wo_entrp">     -3.74786465 </i>
   <i name="e_0_energy">      0.00012501 </i>
  </energy>
  <time name="totalsc">    3.00    3.01</time>
  <eigenvalues>
   <array>
    <dimension dim="1">band</dimension>
    <dimension dim="2">kpoint</dimension>
    <dimension dim="3">spin</dimension>
    <field>eigene</field>
    <field>occ</field>
    <set>
     <set comment="spin 1">
      <set comment="kpoint 1">
       <r>   -3.1287    1.0000 </r>
       <r>   20.6806    0.0000 </r>
       <r>   20.6806    0.0000 </r>
       <r>   20.6806    0.0000 </r>
       <r>   22.1444    0.0000 </r>
      </set>
      <set comment="kpoint 2">
       <r>   -3.0224    1.0000 </r>
       <r>   18.8782    0.0000 </r>
       <r>   20.2989    0.0000 </r>
       <r>   20.2989    0.0000 </r>
       <r>   22.6938    0.0000 </r>
      </set>
      <set comment="kpoint 3">
       <r>   -2.7040    1.0000 </r>
       <r>   16.3524    0.0000 </r>
       <r>   19.7219    0.0000 </r>
       <r>   19.7219    0.0000 </r>
       <r>   22.7585    0.0000 </r>
      </set>
      <set comment="kpoint 4">
       <r>   -2.1749    1.0000 </r>
       <r>   13.8456    0.0000 </r>
       <r>   19.2535    0.0000 </r>
       <r>   19.2535    0.0000 </r>
       <r>   22.5582    0.0000 </r>
      </set>
      <set comment="kpoint 5">
       <r>   -1.4375    1.0000 </r>
       <r>   11.4609    0.0000 </r>
       <r>   18.9476    0.0000 </r>
       <r>   18.9476    0.0000 </r>
       <r>   22.3958    0.0000 </r>
      </set>
      <set comment="kpoint 6">
       <r>   -0.4949    1.0000 </r>
       <r>    9.2238    0.0000 </r>
       <r>   18.8121    0.0000 </r>
       <r>   18.8121    0.0000 </r>
       <r>   21.7356    0.0000 </r>
      </set>
      <set comment="kpoint 7">
       <r>    0.6489    1.0000 </r>
       <r>    7.1500    1.0000 </r>
       <r>   18.8543    0.0000 </r>
       <r>   18.8543    0.0000 </r>
       <r>   20.8113    0.0000 </r>
      </set>
      <set comment="kpoint 8">
       <r>    1.9885    1.0000 </r>
       <r>    5.2507    1.0000 </r>
       <r>   19.0765    0.0000 </r>
       <r>   19.0765    0.0000 </r>
       <r>   20.0585    0.0000 </r>
      </set>
      <set comment="kpoint 9">
       <r>    3.4174    1.0000 </r>
       <r>    3.6360    1.0000 </r>
       <r>   19.4398    0.0000 </r>
       <r>   19.4398    0.0000 </r>
       <r>   19.5196    0.0000 </r>
      </set>
      <set comment="kpoint 10">
       <r>   -2.9869    1.0000 </r>
       <r>   19.4685    0.0000 </r>
       <r>   19.4685    0.0000 </r>
       <r>   19.7525    0.0000 </r>
       <r>   21.8080    0.0000 </r>
      </set>
      <set comment="kpoint 11">
       <r>   -2.7393    1.0000 </r>
       <r>   17.2304    0.0000 </r>
       <r>   18.7542    0.0000 </r>
       <r>   19.8186    0.0000 </r>
       <r>   22.0212    0.0000 </r>
      </set>
      <set comment="kpoint 12">
       <r>   -2.2805    1.0000 </r>
       <r>   14.7356    0.0000 </r>
       <r>   18.2012    0.0000 </r>
       <r>   19.5337    0.0000 </r>
       <r>   22.5174    0.0000 </r>
      </set>
      <set comment="kpoint 13">
       <r>   -1.6127    1.0000 </r>
       <r>   12.3163    0.0000 </r>
       <r>   17.8229    0.0000 </r>
       <r>   19.2346    0.0000 </r>
       <r>   21.3908    0.0000 </r>
      </set>
      <set comment="kpoint 14">
       <r>   -0.7388    1.0000 </r>
       <r>   10.0337    0.0000 </r>
       <r>   17.6206    0.0000 </r>
       <r>   19.0649    0.0000 </r>
       <r>   20.2271    0.0000 </r>
      </set>
      <set comment="kpoint 15">
       <r>    0.3377    1.0000 </r>
       <r>    7.9079    1.0088 </r>
       <r>   17.5994    0.0000 </r>
       <r>   19.0536    0.0000 </r>
       <r>   19.2302    0.0000 </r>
      </set>
      <set comment="kpoint 16">
       <r>    1.6119    1.0000 </r>
       <r>    5.9517    1.0000 </r>
       <r>   17.7574    0.0000 </r>
       <r>   18.3827    0.0000 </r>
       <r>   19.2443    0.0000 </r>
      </set>
      <set comment="kpoint 17">
       <r>    3.0728    1.0000 </r>
       <r>    4.1804    1.0000 </r>
       <r>   17.7320    0.0000 </r>
       <r>   18.0966    0.0000 </r>
       <r>   19.6041    0.0000 </r>
      </set>
      <set comment="kpoint 18">
       <r>    2.5674    1.0000 </r>
       <r>    4.7476    1.0000 </r>
       <r>   17.2635    0.0000 </r>
       <r>   18.6166    0.0000 </r>
       <r>   20.1444    0.0000 </r>
      </set>
      <set comment="kpoint 19">
       <r>    1.1656    1.0000 </r>
       <r>    6.5837    1.0000 </r>
       <r>   16.9792    0.0000 </r>
       <r>   19.3111    0.0000 </r>
       <r>   20.3061    0.0000 </r>
      </set>
      <set comment="kpoint 20">
       <r>   -0.0434    1.0000 </r>
       <r>    8.5971    0.0000 </r>
       <r>   16.8802    0.0000 </r>
       <r>   20.0807    0.0000 </r>
       <r>   20.3095    0.0000 </r>
      </set>
      <set comment="kpoint 21">
       <r>   -1.0528    1.0000 </r>
       <r>   10.7752    0.0000 </r>
       <r>   16.9671    0.0000 </r>
       <r>   20.2414    0.0000 </r>
       <r>   21.2633    0.0000 </r>
      </set>
      <set comment="kpoint 22">
       <r>   -1.8584    1.0000 </r>
       <r>   13.1001    0.0000 </r>
       <r>   17.2398    0.0000 </r>
       <r>   20.4762    0.0000 </r>
       <r>   22.4195    0.0000 </r>
      </set>
      <set comment="kpoint 23">
       <r>   -2.4568    1.0000 </r>
       <r>   15.5331    0.0000 </r>
       <r>   17.7067    0.0000 </r>
       <r>   20.8212    0.0000 </r>
       <r>   22.9244    0.0000 </r>
      </set>
      <set comment="kpoint 24">
       <r>   -2.8454    1.0000 </r>
       <r>   17.8035    0.0000 </r>
       <r>   18.5424    0.0000 </r>
       <r>   20.9607    0.0000 </r>
       <r>   22.3189    0.0000 </r>
      </set>
      <set comment="kpoint 25">
       <r>   -2.5627    1.0000 </r>
       <r>   17.9525    0.0000 </r>
       <r>   17.9525    0.0000 </r>
       <r>   18.2015    0.0000 </r>
       <r>   20.9909    0.0000 </r>
      </set>
      <set comment="kpoint 26">
       <r>   -2.1749    1.0000 </r>
       <r>   15.7270    0.0000 </r>
       <r>   17.3252    0.0000 </r>
       <r>   18.4940    0.0000 </r>
       <r>   20.9458    0.0000 </r>
      </set>
      <set comment="kpoint 27">
       <r>   -1.5777    1.0000 </r>
       <r>   13.3268    0.0000 </r>
       <r>   16.8795    0.0000 </r>
       <r>   18.4041    0.0000 </r>
       <r>   19.6451    0.0000 </r>
      </set>
      <set comment="kpoint 28">
       <r>   -0.7737    1.0000 </r>
       <r>   11.0193    0.0000 </r>
       <r>   16.6138    0.0000 </r>
       <r>   18.1790    0.0000 </r>
       <r>   18.4505    0.0000 </r>
      </set>
      <set comment="kpoint 29">
       <r>    0.2337    1.0000 </r>
       <r>    8.8520    0.0000 </r>
       <r>   16.5294    0.0000 </r>
       <r>   17.2542    0.0000 </r>
       <r>   18.2467    0.0000 </r>
      </set>
      <set comment="kpoint 30">
       <r>    1.4400    1.0000 </r>
       <r>    6.8458    1.0000 </r>
       <r>   16.3487    0.0000 </r>
       <r>   16.6261    0.0000 </r>
       <r>   18.3715    0.0000 </r>
      </set>
      <set comment="kpoint 31">
       <r>    2.8381    1.0000 </r>
       <r>    5.0154    1.0000 </r>
       <r>   15.6242    0.0000 </r>
       <r>   16.9035    0.0000 </r>
       <r>   18.6872    0.0000 </r>
      </set>
      <set comment="kpoint 32">
       <r>    3.3425    1.0000 </r>
       <r>    4.4485    1.0000 </r>
       <r>   15.0875    0.0000 </r>
       <r>   17.3632    0.0000 </r>
       <r>   19.1891    0.0000 </r>
      </set>
      <set comment="kpoint 33">
       <r>    1.8857    1.0000 </r>
       <r>    6.2116    1.0000 </r>
       <r>   14.7423    0.0000 </r>
       <r>   18.0039    0.0000 </r>
       <r>   19.8748    0.0000 </r>
      </set>
      <set comment="kpoint 34">
       <r>    0.6142    1.0000 </r>
       <r>    8.1556   -0.0516 </r>
       <r>   14.5907    0.0000 </r>
       <r>   18.8214    0.0000 </r>
       <r>   20.7365    0.0000 </r>
      </set>
      <set comment="kpoint 35">
       <r>   -0.4602    1.0000 </r>
       <r>   10.2560    0.0000 </r>
       <r>   14.6426    0.0000 </r>
       <r>   19.8085    0.0000 </r>
       <r>   21.7777    0.0000 </r>
      </set>
      <set comment="kpoint 36">
       <r>   -1.3325    1.0000 </r>
       <r>   12.4629    0.0000 </r>
       <r>   14.9309    0.0000 </r>
       <r>   20.9370    0.0000 </r>
       <r>   21.9149    0.0000 </r>
      </set>
      <set comment="kpoint 37">
       <r>   -1.9990    1.0000 </r>
       <r>   14.4775    0.0000 </r>
       <r>   15.7272    0.0000 </r>
       <r>   22.0950    0.0000 </r>
       <r>   23.4190    0.0000 </r>
      </set>
      <set comment="kpoint 38">
       <r>   -1.8584    1.0000 </r>
       <r>   16.6325    0.0000 </r>
       <r>   16.6325    0.0000 </r>
       <r>   16.7466    0.0000 </r>
       <r>   19.4253    0.0000 </r>
      </set>
      <set comment="kpoint 39">
       <r>   -1.3325    1.0000 </r>
       <r>   14.4473    0.0000 </r>
       <r>   16.1207    0.0000 </r>
       <r>   17.2313    0.0000 </r>
       <r>   17.9210    0.0000 </r>
      </set>
      <set comment="kpoint 40">
       <r>   -0.5996    1.0000 </r>
       <r>   12.1607    0.0000 </r>
       <r>   15.7924    0.0000 </r>
       <r>   16.5213    0.0000 </r>
       <r>   17.3462    0.0000 </r>
      </set>
      <set comment="kpoint 41">
       <r>    0.3373    1.0000 </r>
       <r>    9.9721    0.0000 </r>
       <r>   15.3626    0.0000 </r>
       <r>   15.6457    0.0000 </r>
       <r>   17.3152    0.0000 </r>
      </set>
      <set comment="kpoint 42">
       <r>    1.4733    1.0000 </r>
       <r>    7.9263    1.0239 </r>
       <r>   14.3765    0.0000 </r>
       <r>   15.6795    0.0000 </r>
       <r>   17.4087    0.0000 </r>
      </set>
      <set comment="kpoint 43">
       <r>    2.8028    1.0000 </r>
       <r>    6.0461    1.0000 </r>
       <r>   13.5790    0.0000 </r>
       <r>   15.8959    0.0000 </r>
       <r>   17.6777    0.0000 </r>
      </set>
      <set comment="kpoint 44">
       <r>    4.2033    1.0000 </r>
       <r>    4.4584    1.0000 </r>
       <r>   12.9740    0.0000 </r>
       <r>   16.2935    0.0000 </r>
       <r>   18.1299    0.0000 </r>
      </set>
      <set comment="kpoint 45">
       <r>    2.8050    1.0000 </r>
       <r>    6.0326    1.0000 </r>
       <r>   12.5686    0.0000 </r>
       <r>   16.8735    0.0000 </r>
       <r>   18.7704    0.0000 </r>
      </set>
      <set comment="kpoint 46">
       <r>    1.4745    1.0000 </r>
       <r>    7.8910    1.0001 </r>
       <r>   12.3752    0.0000 </r>
       <r>   17.6347    0.0000 </r>
       <r>   19.5905    0.0000 </r>
      </set>
      <set comment="kpoint 47">
       <r>    0.3376    1.0000 </r>
       <r>    9.8585    0.0000 </r>
       <r>   12.4392    0.0000 </r>
       <r>   18.5751    0.0000 </r>
       <r>   20.5821    0.0000 </r>
      </set>
      <set comment="kpoint 48">
       <r>   -0.5995    1.0000 </r>
       <r>   11.6066    0.0000 </r>
       <r>   13.0761    0.0000 </r>
       <r>   19.6863    0.0000 </r>
       <r>   21.7191    0.0000 </r>
      </set>
      <set comment="kpoint 49">
       <r>   -0.8784    1.0000 </r>
       <r>   15.5140    0.0000 </r>
       <r>   15.5452    0.0000 </r>
       <r>   15.5453    0.0000 </r>
       <r>   16.2901    0.0000 </r>
      </set>
      <set comment="kpoint 50">
       <r>   -0.2172    1.0000 </r>
       <r>   13.4098    0.0000 </r>
       <r>   14.8579    0.0000 </r>
       <r>   15.1545    0.0000 </r>
       <r>   16.2254    0.0000 </r>
      </set>
      <set comment="kpoint 51">
       <r>    0.6475    1.0000 </r>
       <r>   11.2440    0.0000 </r>
       <r>   13.6114    0.0000 </r>
       <r>   14.9459    0.0000 </r>
       <r>   16.4241    0.0000 </r>
      </set>
      <set comment="kpoint 52">
       <r>    1.7114    1.0000 </r>
       <r>    9.1793    0.0000 </r>
       <r>   12.5505    0.0000 </r>
       <r>   14.9188    0.0000 </r>
       <r>   16.5383    0.0000 </r>
      </set>
      <set comment="kpoint 53">
       <r>    2.9685    1.0000 </r>
       <r>    7.2613    1.0000 </r>
       <r>   11.6813    0.0000 </r>
       <r>   15.0735    0.0000 </r>
       <r>   16.7730    0.0000 </r>
      </set>
      <set comment="kpoint 54">
       <r>    4.4004    1.0000 </r>
       <r>    5.5194    1.0000 </r>
       <r>   11.0103    0.0000 </r>
       <r>   15.4101    0.0000 </r>
       <r>   17.1771    0.0000 </r>
      </set>
      <set comment="kpoint 55">
       <r>    3.9184    1.0000 </r>
       <r>    6.0384    1.0000 </r>
       <r>   10.5552    0.0000 </r>
       <r>   15.9295    0.0000 </r>
       <r>   17.7673    0.0000 </r>
      </set>
      <set comment="kpoint 56">
       <r>    2.5333    1.0000 </r>
       <r>    7.7590    0.9997 </r>
       <r>   10.3658    0.0000 </r>
       <r>   16.6295    0.0000 </r>
       <r>   18.5405    0.0000 </r>
      </set>
      <set comment="kpoint 57">
       <r>    1.3371    1.0000 </r>
       <r>    9.2560    0.0000 </r>
       <r>   10.7754    0.0000 </r>
       <r>   17.5123    0.0000 </r>
       <r>   19.4856    0.0000 </r>
      </set>
      <set comment="kpoint 58">
       <r>    0.3711    1.0000 </r>
       <r>   13.3414    0.0000 </r>
       <r>   14.5461    0.0000 </r>
       <r>   14.7011    0.0000 </r>
       <r>   14.7011    0.0000 </r>
      </set>
      <set comment="kpoint 59">
       <r>    1.1624    1.0000 </r>
       <r>   11.9903    0.0000 </r>
       <r>   12.6586    0.0000 </r>
       <r>   14.4304    0.0000 </r>
       <r>   15.4326    0.0000 </r>
      </set>
      <set comment="kpoint 60">
       <r>    2.1520    1.0000 </r>
       <r>   10.5137    0.0000 </r>
       <r>   10.9672    0.0000 </r>
       <r>   14.3418    0.0000 </r>
       <r>   15.7602    0.0000 </r>
      </set>
      <set comment="kpoint 61">
       <r>    3.3322    1.0000 </r>
       <r>    8.6318    0.0000 </r>
       <r>    9.9766    0.0000 </r>
       <r>   14.4348    0.0000 </r>
       <r>   16.0091    0.0000 </r>
      </set>
      <set comment="kpoint 62">
       <r>    4.6842    1.0000 </r>
       <r>    6.8560    1.0000 </r>
       <r>    9.2416    0.0000 </r>
       <r>   14.7102    0.0000 </r>
       <r>   16.3785    0.0000 </r>
      </set>
      <set comment="kpoint 63">
       <r>    5.2138    1.0000 </r>
       <r>    6.1872    1.0000 </r>
       <r>    8.7769    0.0000 </r>
       <r>   15.1675    0.0000 </r>
       <r>   16.9196    0.0000 </r>
      </set>
      <set comment="kpoint 64">
       <r>    3.7850    1.0000 </r>
       <r>    7.4296    1.0000 </r>
       <r>    8.9208    0.0000 </r>
       <r>   15.8078    0.0000 </r>
       <r>   17.6428    0.0000 </r>
      </set>
      <set comment="kpoint 65">
       <r>    1.8788    1.0000 </r>
       <r>   10.6081    0.0000 </r>
       <r>   13.8543    0.0000 </r>
       <r>   14.0983    0.0000 </r>
       <r>   14.0983    0.0000 </r>
      </set>
      <set comment="kpoint 66">
       <r>    2.7903    1.0000 </r>
       <r>    9.3983    0.0000 </r>
       <r>   12.1227    0.0000 </r>
       <r>   13.9482    0.0000 </r>
       <r>   14.9055    0.0000 </r>
      </set>
      <set comment="kpoint 67">
       <r>    3.8835    1.0000 </r>
       <r>    8.3911    0.0001 </r>
       <r>   10.2324    0.0000 </r>
       <r>   13.9798    0.0000 </r>
       <r>   15.3569    0.0000 </r>
      </set>
      <set comment="kpoint 68">
       <r>    5.1094    1.0000 </r>
       <r>    7.6072    1.0000 </r>
       <r>    8.4709    0.0000 </r>
       <r>   14.1932    0.0000 </r>
       <r>   15.7396    0.0000 </r>
      </set>
      <set comment="kpoint 69">
       <r>    6.1275    1.0000 </r>
       <r>    6.6545    1.0000 </r>
       <r>    7.6229    1.0000 </r>
       <r>   14.5887    0.0000 </r>
       <r>   16.2446    0.0000 </r>
      </set>
      <set comment="kpoint 70">
       <r>    3.6147    1.0000 </r>
       <r>    8.1364   -0.0336 </r>
       <r>   13.4363    0.0000 </r>
       <r>   13.7369    0.0000 </r>
       <r>   13.7369    0.0000 </r>
      </set>
      <set comment="kpoint 71">
       <r>    4.5808    1.0000 </r>
       <r>    7.1193    1.0000 </r>
       <r>   11.8601    0.0000 </r>
       <r>   13.7073    0.0000 </r>
       <r>   14.6411    0.0000 </r>
      </set>
      <set comment="kpoint 72">
       <r>    5.3480    1.0000 </r>
       <r>    6.6885    1.0000 </r>
       <r>   10.0945    0.0000 </r>
       <r>   13.8592    0.0000 </r>
       <r>   15.2214    0.0000 </r>
      </set>
      <set comment="kpoint 73">
       <r>    5.0885    1.0000 </r>
       <r>    6.4179    1.0000 </r>
       <r>   13.2966    0.0000 </r>
       <r>   13.6165    0.0000 </r>
       <r>   13.6165    0.0000 </r>
      </set>
      <set comment="kpoint 74">
       <r>   -2.4215    1.0000 </r>
       <r>   16.1589    0.0000 </r>
       <r>   17.1184    0.0000 </r>
       <r>   20.1586    0.0000 </r>
       <r>   21.8056    0.0000 </r>
      </set>
      <set comment="kpoint 75">
       <r>   -1.8935    1.0000 </r>
       <r>   14.0054    0.0000 </r>
       <r>   16.3191    0.0000 </r>
       <r>   20.2337    0.0000 </r>
       <r>   21.1994    0.0000 </r>
      </set>
      <set comment="kpoint 76">
       <r>   -1.1576    1.0000 </r>
       <r>   11.6827    0.0000 </r>
       <r>   15.9447    0.0000 </r>
       <r>   19.9216    0.0000 </r>
       <r>   20.0736    0.0000 </r>
      </set>
      <set comment="kpoint 77">
       <r>   -0.2169    1.0000 </r>
       <r>    9.4692    0.0000 </r>
       <r>   15.7813    0.0000 </r>
       <r>   18.7949    0.0000 </r>
       <r>   19.9786    0.0000 </r>
      </set>
      <set comment="kpoint 78">
       <r>    0.9246    1.0000 </r>
       <r>    7.4074    1.0000 </r>
       <r>   15.8107    0.0000 </r>
       <r>   17.8358    0.0000 </r>
       <r>   20.0428    0.0000 </r>
      </set>
      <set comment="kpoint 79">
       <r>    2.2611    1.0000 </r>
       <r>    5.5156    1.0000 </r>
       <r>   16.0252    0.0000 </r>
       <r>   17.0616    0.0000 </r>
       <r>   20.2742    0.0000 </r>
      </set>
      <set comment="kpoint 80">
       <r>    3.6795    1.0000 </r>
       <r>    3.9118    1.0000 </r>
       <r>   16.3259    0.0000 </r>
       <r>   16.5730    0.0000 </r>
       <r>   20.5713    0.0000 </r>
      </set>
      <set comment="kpoint 81">
       <r>   -1.7180    1.0000 </r>
       <r>   14.7422    0.0000 </r>
       <r>   15.8101    0.0000 </r>
       <r>   18.8721    0.0000 </r>
       <r>   19.5381    0.0000 </r>
      </set>
      <set comment="kpoint 82">
       <r>   -1.0528    1.0000 </r>
       <r>   12.7133    0.0000 </r>
       <r>   15.0964    0.0000 </r>
       <r>   18.1492    0.0000 </r>
       <r>   19.1198    0.0000 </r>
      </set>
      <set comment="kpoint 83">
       <r>   -0.1822    1.0000 </r>
       <r>   10.5096    0.0000 </r>
       <r>   14.8283    0.0000 </r>
       <r>   16.9322    0.0000 </r>
       <r>   19.1067    0.0000 </r>
      </set>
      <set comment="kpoint 84">
       <r>    0.8897    1.0000 </r>
       <r>    8.4150    0.0000 </r>
       <r>   14.7721    0.0000 </r>
       <r>   15.9016    0.0000 </r>
       <r>   19.1564    0.0000 </r>
      </set>
      <set comment="kpoint 85">
       <r>    2.1579    1.0000 </r>
       <r>    6.4761    1.0000 </r>
       <r>   14.8050    0.0000 </r>
       <r>   15.1652    0.0000 </r>
       <r>   19.3564    0.0000 </r>
      </set>
      <set comment="kpoint 86">
       <r>    3.6092    1.0000 </r>
       <r>    4.7178    1.0000 </r>
       <r>   14.3136    0.0000 </r>
       <r>   15.3351    0.0000 </r>
       <r>   19.7291    0.0000 </r>
      </set>
      <set comment="kpoint 87">
       <r>    3.1091    1.0000 </r>
       <r>    5.2775    1.0000 </r>
       <r>   13.8534    0.0000 </r>
       <r>   15.8554    0.0000 </r>
       <r>   20.2752    0.0000 </r>
      </set>
      <set comment="kpoint 88">
       <r>    1.7142    1.0000 </r>
       <r>    7.0958    1.0000 </r>
       <r>   13.5806    0.0000 </r>
       <r>   16.5746    0.0000 </r>
       <r>   20.9765    0.0000 </r>
      </set>
      <set comment="kpoint 89">
       <r>    0.5104    1.0000 </r>
       <r>    9.0758    0.0000 </r>
       <r>   13.5131    0.0000 </r>
       <r>   17.4794    0.0000 </r>
       <r>   21.4748    0.0000 </r>
      </set>
      <set comment="kpoint 90">
       <r>   -0.4951    1.0000 </r>
       <r>   11.1632    0.0000 </r>
       <r>   13.6928    0.0000 </r>
       <r>   18.5631    0.0000 </r>
       <r>   21.4876    0.0000 </r>
      </set>
      <set comment="kpoint 91">
       <r>   -1.2975    1.0000 </r>
       <r>   13.0449    0.0000 </r>
       <r>   14.4113    0.0000 </r>
       <r>   19.8140    0.0000 </r>
       <r>   21.2213    0.0000 </r>
      </set>
      <set comment="kpoint 92">
       <r>   -0.7390    1.0000 </r>
       <r>   13.5722    0.0000 </r>
       <r>   14.7008    0.0000 </r>
       <r>   16.4466    0.0000 </r>
       <r>   17.7442    0.0000 </r>
      </set>
      <set comment="kpoint 93">
       <r>    0.0602    1.0000 </r>
       <r>   11.6710    0.0000 </r>
       <r>   14.0738    0.0000 </r>
       <r>   15.1689    0.0000 </r>
       <r>   18.1355    0.0000 </r>
      </set>
      <set comment="kpoint 94">
       <r>    1.0610    1.0000 </r>
       <r>    9.5898    0.0000 </r>
       <r>   13.7807    0.0000 </r>
       <r>   14.1972    0.0000 </r>
       <r>   18.2624    0.0000 </r>
      </set>
      <set comment="kpoint 95">
       <r>    2.2582    1.0000 </r>
       <r>    7.6198    1.0000 </r>
       <r>   13.0351    0.0000 </r>
       <r>   14.0930    0.0000 </r>
       <r>   18.4457    0.0000 </r>
      </set>
      <set comment="kpoint 96">
       <r>    3.6433    1.0000 </r>
       <r>    5.8105    1.0000 </r>
       <r>   12.3178    0.0000 </r>
       <r>   14.3531    0.0000 </r>
       <r>   18.7777    0.0000 </r>
      </set>
      <set comment="kpoint 97">
       <r>    4.1465    1.0000 </r>
       <r>    5.2400    1.0000 </r>
       <r>   11.7863    0.0000 </r>
       <r>   14.8202    0.0000 </r>
       <r>   19.2822    0.0000 </r>
      </set>
      <set comment="kpoint 98">
       <r>    2.7028    1.0000 </r>
       <r>    6.9648    1.0000 </r>
       <r>   11.4659    0.0000 </r>
       <r>   15.4808    0.0000 </r>
       <r>   19.9629    0.0000 </r>
      </set>
      <set comment="kpoint 99">
       <r>    1.4399    1.0000 </r>
       <r>    8.8097    0.0000 </r>
       <r>   11.4063    0.0000 </r>
       <r>   16.3280    0.0000 </r>
       <r>   20.8114    0.0000 </r>
      </set>
      <set comment="kpoint 100">
       <r>    0.3722    1.0000 </r>
       <r>   10.4318    0.0000 </r>
       <r>   11.9333    0.0000 </r>
       <r>   17.3591    0.0000 </r>
       <r>   21.8035    0.0000 </r>
      </set>
      <set comment="kpoint 101">
       <r>    0.5094    1.0000 </r>
       <r>   12.6595    0.0000 </r>
       <r>   13.3818    0.0000 </r>
       <r>   13.9608    0.0000 </r>
       <r>   16.8485    0.0000 </r>
      </set>
      <set comment="kpoint 102">
       <r>    1.4372    1.0000 </r>
       <r>   10.8782    0.0000 </r>
       <r>   12.2561    0.0000 </r>
       <r>   13.4114    0.0000 </r>
       <r>   17.3741    0.0000 </r>
      </set>
      <set comment="kpoint 103">
       <r>    2.5609    1.0000 </r>
       <r>    8.9246    0.0000 </r>
       <r>   11.2782    0.0000 </r>
       <r>   13.3648    0.0000 </r>
       <r>   17.6346    0.0000 </r>
      </set>
      <set comment="kpoint 104">
       <r>    3.8711    1.0000 </r>
       <r>    7.0859    1.0000 </r>
       <r>   10.4805    0.0000 </r>
       <r>   13.5629    0.0000 </r>
       <r>   17.9487    0.0000 </r>
      </set>
      <set comment="kpoint 105">
       <r>    5.2433    1.0000 </r>
       <r>    5.5153    1.0000 </r>
       <r>    9.8932    0.0000 </r>
       <r>   13.9666    0.0000 </r>
       <r>   18.4116    0.0000 </r>
      </set>
      <set comment="kpoint 106">
       <r>    3.8847    1.0000 </r>
       <r>    6.9696    1.0000 </r>
       <r>    9.5701    0.0000 </r>
       <r>   14.5659    0.0000 </r>
       <r>   19.0454    0.0000 </r>
      </set>
      <set comment="kpoint 107">
       <r>    2.5668    1.0000 </r>
       <r>    8.3424    0.0007 </r>
       <r>    9.8505    0.0000 </r>
       <r>   15.3549    0.0000 </r>
       <r>   19.8502    0.0000 </r>
      </set>
      <set comment="kpoint 108">
       <r>    2.0156    1.0000 </r>
       <r>   10.7284    0.0000 </r>
       <r>   12.0059    0.0000 </r>
       <r>   13.2638    0.0000 </r>
       <r>   16.2061    0.0000 </r>
      </set>
      <set comment="kpoint 109">
       <r>    3.0615    1.0000 </r>
       <r>    9.6304    0.0000 </r>
       <r>   10.4057    0.0000 </r>
       <r>   12.8785    0.0000 </r>
       <r>   16.8601    0.0000 </r>
      </set>
      <set comment="kpoint 110">
       <r>    4.2853    1.0000 </r>
       <r>    8.4316    0.0000 </r>
       <r>    8.9279    0.0000 </r>
       <r>   12.9742    0.0000 </r>
       <r>   17.2509    0.0000 </r>
      </set>
      <set comment="kpoint 111">
       <r>    5.6321    1.0000 </r>
       <r>    6.7999    1.0000 </r>
       <r>    8.2562    0.0048 </r>
       <r>   13.3055    0.0000 </r>
       <r>   17.6965    0.0000 </r>
      </set>
      <set comment="kpoint 112">
       <r>    5.2503    1.0000 </r>
       <r>    6.7785    1.0000 </r>
       <r>    8.2486    0.0042 </r>
       <r>   13.8391    0.0000 </r>
       <r>   18.2887    0.0000 </r>
      </set>
      <set comment="kpoint 113">
       <r>    3.7490    1.0000 </r>
       <r>    8.2667    0.0049 </r>
       <r>   11.6114    0.0000 </r>
       <r>   12.8820    0.0000 </r>
       <r>   15.8192    0.0000 </r>
      </set>
      <set comment="kpoint 114">
       <r>    4.8457    1.0000 </r>
       <r>    7.3837    1.0000 </r>
       <r>   10.1211    0.0000 </r>
       <r>   12.6201    0.0000 </r>
       <r>   16.6015    0.0000 </r>
      </set>
      <set comment="kpoint 115">
       <r>    5.7376    1.0000 </r>
       <r>    7.0735    1.0000 </r>
       <r>    8.4591    0.0000 </r>
       <r>   12.8454    0.0000 </r>
       <r>   17.1219    0.0000 </r>
      </set>
      <set comment="kpoint 116">
       <r>    5.2181    1.0000 </r>
       <r>    6.5537    1.0000 </r>
       <r>   11.4806    0.0000 </r>
       <r>   12.7555    0.0000 </r>
       <r>   15.6907    0.0000 </r>
      </set>
      <set comment="kpoint 117">
       <r>   -0.3212    1.0000 </r>
       <r>   11.8702    0.0000 </r>
       <r>   13.2842    0.0000 </r>
       <r>   16.8152    0.0000 </r>
       <r>   20.1878    0.0000 </r>
      </set>
      <set comment="kpoint 118">
       <r>    0.6136    1.0000 </r>
       <r>   10.1174    0.0000 </r>
       <r>   12.6680    0.0000 </r>
       <r>   15.6503    0.0000 </r>
       <r>   20.6251    0.0000 </r>
      </set>
      <set comment="kpoint 119">
       <r>    1.7476    1.0000 </r>
       <r>    8.1525   -0.0510 </r>
       <r>   12.6033    0.0000 </r>
       <r>   14.6730    0.0000 </r>
       <r>   20.8155    0.0000 </r>
      </set>
      <set comment="kpoint 120">
       <r>    3.0742    1.0000 </r>
       <r>    6.2981    1.0000 </r>
       <r>   12.7753    0.0000 </r>
       <r>   13.8992    0.0000 </r>
       <r>   21.0791    0.0000 </r>
      </set>
      <set comment="kpoint 121">
       <r>    4.4650    1.0000 </r>
       <r>    4.7287    1.0000 </r>
       <r>   12.9959    0.0000 </r>
       <r>   13.4799    0.0000 </r>
       <r>   21.3397    0.0000 </r>
      </set>
      <set comment="kpoint 122">
       <r>    0.9233    1.0000 </r>
       <r>   10.9566    0.0000 </r>
       <r>   12.3599    0.0000 </r>
       <r>   13.9388    0.0000 </r>
       <r>   19.3186    0.0000 </r>
      </set>
      <set comment="kpoint 123">
       <r>    1.9851    1.0000 </r>
       <r>    9.3288    0.0000 </r>
       <r>   11.8369    0.0000 </r>
       <r>   12.9100    0.0000 </r>
       <r>   19.9042    0.0000 </r>
      </set>
      <set comment="kpoint 124">
       <r>    3.2397    1.0000 </r>
       <r>    7.4898    1.0000 </r>
       <r>   11.6948    0.0000 </r>
       <r>   12.2539    0.0000 </r>
       <r>   20.2404    0.0000 </r>
      </set>
      <set comment="kpoint 125">
       <r>    4.6679    1.0000 </r>
       <r>    5.7731    1.0000 </r>
       <r>   11.2174    0.0000 </r>
       <r>   12.3876    0.0000 </r>
       <r>   20.6511    0.0000 </r>
      </set>
      <set comment="kpoint 126">
       <r>    4.1818    1.0000 </r>
       <r>    6.3034    1.0000 </r>
       <r>   10.7927    0.0000 </r>
       <r>   12.8934    0.0000 </r>
       <r>   21.2037    0.0000 </r>
      </set>
      <set comment="kpoint 127">
       <r>    2.8030    1.0000 </r>
       <r>    8.0205    0.8776 </r>
       <r>   10.6099    0.0000 </r>
       <r>   13.6192    0.0000 </r>
       <r>   21.8911    0.0000 </r>
      </set>
      <set comment="kpoint 128">
       <r>    1.6105    1.0000 </r>
       <r>    9.5176    0.0000 </r>
       <r>   11.0149    0.0000 </r>
       <r>   14.5420    0.0000 </r>
       <r>   22.0204    0.0000 </r>
      </set>
      <set comment="kpoint 129">
       <r>    2.4247    1.0000 </r>
       <r>   10.3032    0.0000 </r>
       <r>   11.0165    0.0000 </r>
       <r>   11.9251    0.0000 </r>
       <r>   18.6858    0.0000 </r>
      </set>
      <set comment="kpoint 130">
       <r>    3.6023    1.0000 </r>
       <r>    8.7921    0.0000 </r>
       <r>   10.1645    0.0000 </r>
       <r>   11.4870    0.0000 </r>
       <r>   19.4068    0.0000 </r>
      </set>
      <set comment="kpoint 131">
       <r>    4.9512    1.0000 </r>
       <r>    7.0866    1.0000 </r>
       <r>    9.4774    0.0000 </r>
       <r>   11.6490    0.0000 </r>
       <r>   19.8774    0.0000 </r>
      </set>
      <set comment="kpoint 132">
       <r>    5.4679    1.0000 </r>
       <r>    6.4495    1.0000 </r>
       <r>    9.0267    0.0000 </r>
       <r>   12.0930    0.0000 </r>
       <r>   20.4188    0.0000 </r>
      </set>
      <set comment="kpoint 133">
       <r>    4.0494    1.0000 </r>
       <r>    7.6904    1.0000 </r>
       <r>    9.1722    0.0000 </r>
       <r>   12.7556    0.0000 </r>
       <r>   21.0988    0.0000 </r>
      </set>
      <set comment="kpoint 134">
       <r>    4.1519    1.0000 </r>
       <r>    8.6500    0.0000 </r>
       <r>    9.9110    0.0000 </r>
       <r>   11.4434    0.0000 </r>
       <r>   18.3021    0.0000 </r>
      </set>
      <set comment="kpoint 135">
       <r>    5.3739    1.0000 </r>
       <r>    7.8760    0.9962 </r>
       <r>    8.5983    0.0000 </r>
       <r>   11.1863    0.0000 </r>
       <r>   19.1556    0.0000 </r>
      </set>
      <set comment="kpoint 136">
       <r>    6.3878    1.0000 </r>
       <r>    6.8942    1.0000 </r>
       <r>    7.8688    0.9954 </r>
       <r>   11.5074    0.0000 </r>
       <r>   19.7556    0.0000 </r>
      </set>
      <set comment="kpoint 137">
       <r>    5.6077    1.0000 </r>
       <r>    6.9588    1.0000 </r>
       <r>    9.7804    0.0000 </r>
       <r>   11.3040    0.0000 </r>
       <r>   18.1750    0.0000 </r>
      </set>
      <set comment="kpoint 138">
       <r>    3.1042    1.0000 </r>
       <r>    8.8649    0.0000 </r>
       <r>   10.3093    0.0000 </r>
       <r>   11.9031    0.0000 </r>
       <r>   21.4093    0.0000 </r>
      </set>
      <set comment="kpoint 139">
       <r>    4.4087    1.0000 </r>
       <r>    7.4926    1.0000 </r>
       <r>   10.0106    0.0000 </r>
       <r>   11.1339    0.0000 </r>
       <r>   22.1735    0.0000 </r>
      </set>
      <set comment="kpoint 140">
       <r>    5.7608    1.0000 </r>
       <r>    6.0230    1.0000 </r>
       <r>   10.1231    0.0000 </r>
       <r>   10.7583    0.0000 </r>
       <r>   22.5021    0.0000 </r>
      </set>
      <set comment="kpoint 141">
       <r>    4.8200    1.0000 </r>
       <r>    8.4734    0.0000 </r>
       <r>    9.1887    0.0000 </r>
       <r>   10.1835    0.0000 </r>
       <r>   21.0352    0.0000 </r>
      </set>
      <set comment="kpoint 142">
       <r>    6.1596    1.0000 </r>
       <r>    7.2185    1.0000 </r>
       <r>    8.6827    0.0000 </r>
       <r>    9.9724    0.0000 </r>
       <r>   21.9505    0.0000 </r>
      </set>
      <set comment="kpoint 143">
       <r>    5.7472    1.0000 </r>
       <r>    7.2994    1.0000 </r>
       <r>    8.7180    0.0000 </r>
       <r>   10.3949    0.0000 </r>
       <r>   22.5875    0.0000 </r>
      </set>
      <set comment="kpoint 144">
       <r>    6.2576    1.0000 </r>
       <r>    7.6043    1.0000 </r>
       <r>    8.3426    0.0007 </r>
       <r>    9.9533    0.0000 </r>
       <r>   20.9078    0.0000 </r>
      </set>
      <set comment="kpoint 145">
       <r>    7.1692    1.0000 </r>
       <r>    7.1692    1.0000 </r>
       <r>    8.1855   -0.0334 </r>
       <r>    9.1301    0.0000 </r>
       <r>   23.8773    0.0000 </r>
      </set>
     </set>
    </set>
   </array>
  </eigenvalues>
  <separator name="orbital magnetization" >
   <v name="MAGDIPOLOUT">      0.00000000      0.00000000      0.00000000</v>
  </separator>
  <dos>
   <i name="efermi">      8.06089136 </i>
   <total>
    <array>
     <dimension dim="1">gridpoints</dimension>
     <dimension dim="2">spin</dimension>
     <field>energy</field>
     <field>total</field>
     <field>integrated</field>
     <set>
      <set comment="spin 1">
       <r>    -4.4790     0.0000     0.0000 </r>
       <r>    -4.3800     0.0000     0.0000 </r>
       <r>    -4.2809     0.0000     0.0000 </r>
       <r>    -4.1819     0.0000     0.0000 </r>
       <r>    -4.0829     0.0000     0.0000 </r>
       <r>    -3.9839     0.0000     0.0000 </r>
       <r>    -3.8848     0.0000     0.0000 </r>
       <r>    -3.7858     0.0000     0.0000 </r>
       <r>    -3.6868     0.0000     0.0000 </r>
       <r>    -3.5878     0.0000     0.0000 </r>
       <r>    -3.4888     0.0000     0.0000 </r>
       <r>    -3.3897     0.0000     0.0000 </r>
       <r>    -3.2907     0.0000     0.0000 </r>
       <r>    -3.1917     0.0001     0.0000 </r>
       <r>    -3.0927     0.0019     0.0002 </r>
       <r>    -2.9936     0.0462     0.0048 </r>
       <r>    -2.8946     0.0316     0.0079 </r>
       <r>    -2.7956     0.0508     0.0129 </r>
       <r>    -2.6966     0.1314     0.0260 </r>
       <r>    -2.5976     0.0356     0.0295 </r>
       <r>    -2.4985     0.0320     0.0326 </r>
       <r>    -2.3995     0.1881     0.0513 </r>
       <r>    -2.3005     0.0744     0.0586 </r>
       <r>    -2.2015     0.1246     0.0710 </r>
       <r>    -2.1025     0.1191     0.0828 </r>
       <r>    -2.0034     0.0111     0.0839 </r>
       <r>    -1.9044     0.1529     0.0990 </r>
       <r>    -1.8054     0.2772     0.1265 </r>
       <r>    -1.7064     0.0645     0.1328 </r>
       <r>    -1.6073     0.1495     0.1476 </r>
       <r>    -1.5083     0.1488     0.1624 </r>
       <r>    -1.4093     0.0093     0.1633 </r>
       <r>    -1.3103     0.2373     0.1868 </r>
       <r>    -1.2113     0.1624     0.2029 </r>
       <r>    -1.1122     0.1975     0.2224 </r>
       <r>    -1.0132     0.3299     0.2551 </r>
       <r>    -0.9142     0.0515     0.2602 </r>
       <r>    -0.8152     0.0252     0.2627 </r>
       <r>    -0.7161     0.2778     0.2902 </r>
       <r>    -0.6171     0.1274     0.3028 </r>
       <r>    -0.5181     0.2056     0.3232 </r>
       <r>    -0.4191     0.3027     0.3532 </r>
       <r>    -0.3201     0.0482     0.3579 </r>
       <r>    -0.2210     0.2784     0.3855 </r>
       <r>    -0.1220     0.4030     0.4254 </r>
       <r>    -0.0230     0.0617     0.4315 </r>
       <r>     0.0760     0.2065     0.4520 </r>
       <r>     0.1750     0.0869     0.4606 </r>
       <r>     0.2741     0.0847     0.4690 </r>
       <r>     0.3731     0.3925     0.5078 </r>
       <r>     0.4721     0.1924     0.5269 </r>
       <r>     0.5711     0.3228     0.5589 </r>
       <r>     0.6702     0.4354     0.6020 </r>
       <r>     0.7692     0.0465     0.6066 </r>
       <r>     0.8682     0.0808     0.6146 </r>
       <r>     0.9672     0.4754     0.6617 </r>
       <r>     1.0662     0.1641     0.6779 </r>
       <r>     1.1653     0.2444     0.7021 </r>
       <r>     1.2643     0.1153     0.7135 </r>
       <r>     1.3633     0.0026     0.7138 </r>
       <r>     1.4623     0.5718     0.7704 </r>
       <r>     1.5614     0.3466     0.8047 </r>
       <r>     1.6604     0.1784     0.8224 </r>
       <r>     1.7594     0.4854     0.8704 </r>
       <r>     1.8584     0.1620     0.8865 </r>
       <r>     1.9574     0.1732     0.9036 </r>
       <r>     2.0565     0.3038     0.9337 </r>
       <r>     2.1555     0.1783     0.9514 </r>
       <r>     2.2545     0.4290     0.9938 </r>
       <r>     2.3535     0.2671     1.0203 </r>
       <r>     2.4525     0.0416     1.0244 </r>
       <r>     2.5516     0.3138     1.0555 </r>
       <r>     2.6506     0.3650     1.0916 </r>
       <r>     2.7496     0.2111     1.1125 </r>
       <r>     2.8486     0.6136     1.1733 </r>
       <r>     2.9477     0.1132     1.1845 </r>
       <r>     3.0467     0.2654     1.2108 </r>
       <r>     3.1457     0.7356     1.2836 </r>
       <r>     3.2447     0.1661     1.3000 </r>
       <r>     3.3437     0.2555     1.3253 </r>
       <r>     3.4428     0.1175     1.3370 </r>
       <r>     3.5418    -0.0224     1.3348 </r>
       <r>     3.6408     0.5697     1.3912 </r>
       <r>     3.7398     0.3909     1.4299 </r>
       <r>     3.8389     0.1804     1.4477 </r>
       <r>     3.9379     0.6806     1.5151 </r>
       <r>     4.0369     0.1135     1.5264 </r>
       <r>     4.1359     0.2467     1.5508 </r>
       <r>     4.2349     0.6600     1.6162 </r>
       <r>     4.3340     0.2099     1.6370 </r>
       <r>     4.4330     0.3979     1.6764 </r>
       <r>     4.5320     0.3692     1.7129 </r>
       <r>     4.6310     0.1042     1.7232 </r>
       <r>     4.7300     0.5666     1.7793 </r>
       <r>     4.8291     0.4155     1.8205 </r>
       <r>     4.9281     0.2615     1.8464 </r>
       <r>     5.0271     0.2450     1.8706 </r>
       <r>     5.1261     0.1007     1.8806 </r>
       <r>     5.2252     0.3852     1.9188 </r>
       <r>     5.3242     0.7752     1.9955 </r>
       <r>     5.4232     0.2329     2.0186 </r>
       <r>     5.5222     0.5703     2.0751 </r>
       <r>     5.6212     0.4252     2.1172 </r>
       <r>     5.7203     0.2381     2.1407 </r>
       <r>     5.8193     0.6258     2.2027 </r>
       <r>     5.9183     0.1306     2.2156 </r>
       <r>     6.0173     0.2452     2.2399 </r>
       <r>     6.1164     0.3865     2.2782 </r>
       <r>     6.2154     0.3740     2.3152 </r>
       <r>     6.3144     0.4629     2.3611 </r>
       <r>     6.4134     0.3227     2.3930 </r>
       <r>     6.5124     0.4237     2.4350 </r>
       <r>     6.6115     0.1917     2.4539 </r>
       <r>     6.7105     0.1029     2.4641 </r>
       <r>     6.8095     0.2910     2.4929 </r>
       <r>     6.9085     0.4328     2.5358 </r>
       <r>     7.0075     0.4575     2.5811 </r>
       <r>     7.1066     0.7169     2.6521 </r>
       <r>     7.2056     0.5343     2.7050 </r>
       <r>     7.3046     0.2839     2.7331 </r>
       <r>     7.4036     0.3525     2.7680 </r>
       <r>     7.5027     0.5526     2.8227 </r>
       <r>     7.6017     0.3621     2.8586 </r>
       <r>     7.7007     0.3844     2.8966 </r>
       <r>     7.7997     0.1062     2.9072 </r>
       <r>     7.8987     0.4393     2.9507 </r>
       <r>     7.9978     0.3937     2.9896 </r>
       <r>     8.0968     0.1650     3.0060 </r>
       <r>     8.1958     0.3524     3.0409 </r>
       <r>     8.2948     0.4525     3.0857 </r>
       <r>     8.3939     0.4000     3.1253 </r>
       <r>     8.4929     0.6972     3.1943 </r>
       <r>     8.5919     0.2651     3.2206 </r>
       <r>     8.6909     0.5611     3.2761 </r>
       <r>     8.7899     0.4739     3.3231 </r>
       <r>     8.8890     0.6223     3.3847 </r>
       <r>     8.9880     0.5030     3.4345 </r>
       <r>     9.0870     0.3414     3.4683 </r>
       <r>     9.1860     0.3527     3.5032 </r>
       <r>     9.2850     0.3689     3.5398 </r>
       <r>     9.3841     0.2370     3.5632 </r>
       <r>     9.4831     0.3919     3.6020 </r>
       <r>     9.5821     0.5924     3.6607 </r>
       <r>     9.6811     0.4298     3.7033 </r>
       <r>     9.7802     0.0060     3.7038 </r>
       <r>     9.8792     0.3010     3.7337 </r>
       <r>     9.9782     0.6998     3.8029 </r>
       <r>    10.0772     0.6049     3.8628 </r>
       <r>    10.1762     0.7476     3.9369 </r>
       <r>    10.2753     0.4186     3.9783 </r>
       <r>    10.3743     0.3750     4.0155 </r>
       <r>    10.4733     0.5901     4.0739 </r>
       <r>    10.5723     0.5831     4.1316 </r>
       <r>    10.6714     0.2377     4.1552 </r>
       <r>    10.7704     0.3303     4.1879 </r>
       <r>    10.8694     0.4395     4.2314 </r>
       <r>    10.9684     0.3187     4.2629 </r>
       <r>    11.0674     0.4866     4.3111 </r>
       <r>    11.1665     0.4302     4.3537 </r>
       <r>    11.2655     0.7435     4.4273 </r>
       <r>    11.3645     0.2374     4.4509 </r>
       <r>    11.4635     0.5291     4.5032 </r>
       <r>    11.5625     0.5041     4.5532 </r>
       <r>    11.6616     0.5500     4.6076 </r>
       <r>    11.7606     0.7687     4.6837 </r>
       <r>    11.8596     0.4467     4.7280 </r>
       <r>    11.9586     0.5354     4.7810 </r>
       <r>    12.0577     0.2795     4.8087 </r>
       <r>    12.1567     0.3304     4.8414 </r>
       <r>    12.2557     0.3440     4.8754 </r>
       <r>    12.3547     0.6843     4.9432 </r>
       <r>    12.4537     0.5131     4.9940 </r>
       <r>    12.5528     0.2062     5.0144 </r>
       <r>    12.6518     0.7234     5.0861 </r>
       <r>    12.7508     0.7124     5.1566 </r>
       <r>    12.8498     0.4685     5.2030 </r>
       <r>    12.9489     0.8224     5.2844 </r>
       <r>    13.0479     0.6701     5.3508 </r>
       <r>    13.1469     0.2902     5.3795 </r>
       <r>    13.2459     0.0377     5.3833 </r>
       <r>    13.3449     0.6010     5.4428 </r>
       <r>    13.4440     0.6747     5.5096 </r>
       <r>    13.5430     0.5106     5.5601 </r>
       <r>    13.6420     0.9293     5.6522 </r>
       <r>    13.7410     0.4436     5.6961 </r>
       <r>    13.8400     0.4515     5.7408 </r>
       <r>    13.9391     0.7378     5.8139 </r>
       <r>    14.0381     0.7795     5.8910 </r>
       <r>    14.1371     0.4916     5.9397 </r>
       <r>    14.2361     0.3084     5.9703 </r>
       <r>    14.3352     0.3584     6.0057 </r>
       <r>    14.4342     0.6823     6.0733 </r>
       <r>    14.5332     0.3780     6.1107 </r>
       <r>    14.6322     0.5348     6.1637 </r>
       <r>    14.7312     0.7647     6.2394 </r>
       <r>    14.8303     0.9853     6.3370 </r>
       <r>    14.9293     0.6419     6.4005 </r>
       <r>    15.0283     0.1965     6.4200 </r>
       <r>    15.1273     0.4959     6.4691 </r>
       <r>    15.2264     0.6939     6.5378 </r>
       <r>    15.3254     0.1935     6.5570 </r>
       <r>    15.4244     0.5796     6.6144 </r>
       <r>    15.5234     0.3849     6.6525 </r>
       <r>    15.6224     0.2974     6.6819 </r>
       <r>    15.7215     0.6009     6.7414 </r>
       <r>    15.8205     0.9626     6.8368 </r>
       <r>    15.9195     0.8558     6.9215 </r>
       <r>    16.0185     0.5285     6.9738 </r>
       <r>    16.1176     0.2398     6.9976 </r>
       <r>    16.2166     0.2606     7.0234 </r>
       <r>    16.3156     0.5830     7.0811 </r>
       <r>    16.4146     0.7026     7.1507 </r>
       <r>    16.5136     0.2651     7.1770 </r>
       <r>    16.6127     0.8786     7.2639 </r>
       <r>    16.7117     0.4144     7.3050 </r>
       <r>    16.8107     0.1554     7.3204 </r>
       <r>    16.9097     0.8919     7.4087 </r>
       <r>    17.0087     0.6034     7.4684 </r>
       <r>    17.1078     0.2920     7.4974 </r>
       <r>    17.2068     0.3956     7.5365 </r>
       <r>    17.3058     0.8154     7.6173 </r>
       <r>    17.4048     0.7381     7.6904 </r>
       <r>    17.5039     0.3266     7.7227 </r>
       <r>    17.6029     0.2556     7.7480 </r>
       <r>    17.7019     0.8081     7.8280 </r>
       <r>    17.8009     0.7124     7.8986 </r>
       <r>    17.8999     0.3945     7.9376 </r>
       <r>    17.9990     0.3760     7.9749 </r>
       <r>    18.0980     0.2199     7.9966 </r>
       <r>    18.1970     0.7618     8.0721 </r>
       <r>    18.2960     0.5672     8.1282 </r>
       <r>    18.3951     0.4885     8.1766 </r>
       <r>    18.4941     0.6890     8.2448 </r>
       <r>    18.5931     0.5307     8.2974 </r>
       <r>    18.6921     0.2973     8.3268 </r>
       <r>    18.7911     0.6168     8.3879 </r>
       <r>    18.8902     0.6210     8.4494 </r>
       <r>    18.9892     0.0864     8.4580 </r>
       <r>    19.0882     0.5700     8.5144 </r>
       <r>    19.1872     0.9476     8.6082 </r>
       <r>    19.2862     0.7000     8.6775 </r>
       <r>    19.3853     0.5981     8.7368 </r>
       <r>    19.4843     0.3556     8.7720 </r>
       <r>    19.5833     0.3562     8.8072 </r>
       <r>    19.6823     0.3317     8.8401 </r>
       <r>    19.7814     0.4727     8.8869 </r>
       <r>    19.8804     0.7274     8.9589 </r>
       <r>    19.9794     0.8672     9.0448 </r>
       <r>    20.0784     0.6107     9.1053 </r>
       <r>    20.1774     0.4381     9.1486 </r>
       <r>    20.2765     1.0679     9.2544 </r>
       <r>    20.3755     0.6200     9.3158 </r>
       <r>    20.4745     0.2057     9.3362 </r>
       <r>    20.5735     0.2086     9.3568 </r>
       <r>    20.6726     0.5100     9.4073 </r>
       <r>    20.7716     0.2698     9.4340 </r>
       <r>    20.8706     0.5427     9.4878 </r>
       <r>    20.9696     0.4089     9.5283 </r>
       <r>    21.0686     0.4661     9.5744 </r>
       <r>    21.1677     0.3452     9.6086 </r>
       <r>    21.2667     0.5432     9.6624 </r>
       <r>    21.3657     0.1916     9.6813 </r>
       <r>    21.4647     0.3936     9.7203 </r>
       <r>    21.5637     0.3357     9.7536 </r>
       <r>    21.6628    -0.0307     9.7505 </r>
       <r>    21.7618     0.1528     9.7657 </r>
       <r>    21.8608     0.3789     9.8032 </r>
       <r>    21.9598     0.4541     9.8481 </r>
       <r>    22.0589     0.3139     9.8792 </r>
       <r>    22.1579     0.1672     9.8958 </r>
       <r>    22.2569     0.1651     9.9121 </r>
       <r>    22.3559     0.0429     9.9164 </r>
       <r>    22.4549     0.1504     9.9313 </r>
       <r>    22.5540     0.2674     9.9577 </r>
       <r>    22.6530     0.1501     9.9726 </r>
       <r>    22.7520     0.0459     9.9771 </r>
       <r>    22.8510     0.0223     9.9794 </r>
       <r>    22.9501     0.0908     9.9883 </r>
       <r>    23.0491     0.0329     9.9916 </r>
       <r>    23.1481    -0.0043     9.9912 </r>
       <r>    23.2471     0.0004     9.9912 </r>
       <r>    23.3461    -0.0017     9.9910 </r>
       <r>    23.4452     0.0468     9.9957 </r>
       <r>    23.5442     0.0160     9.9973 </r>
       <r>    23.6432    -0.0021     9.9971 </r>
       <r>    23.7422    -0.0006     9.9970 </r>
       <r>    23.8412     0.0053     9.9975 </r>
       <r>    23.9403     0.0250    10.0000 </r>
       <r>    24.0393     0.0001    10.0000 </r>
       <r>    24.1383    -0.0001    10.0000 </r>
       <r>    24.2373     0.0000    10.0000 </r>
       <r>    24.3364     0.0000    10.0000 </r>
       <r>    24.4354     0.0000    10.0000 </r>
       <r>    24.5344     0.0000    10.0000 </r>
       <r>    24.6334     0.0000    10.0000 </r>
       <r>    24.7324     0.0000    10.0000 </r>
       <r>    24.8315     0.0000    10.0000 </r>
       <r>    24.9305     0.0000    10.0000 </r>
       <r>    25.0295     0.0000    10.0000 </r>
       <r>    25.1285     0.0000    10.0000 </r>
       <r>    25.2276     0.0000    10.0000 </r>
      </set>
     </set>
    </array>
   </total>
  </dos>
 </calculation>
 <structure name="finalpos" >
  <crystal>
   <varray name="basis" >
    <v>      -2.01973917       0.00000000       2.01973917 </v>
    <v>       0.00000000       2.01973917       2.01973917 </v>
    <v>      -2.01973917       2.01973917       0.00000000 </v>
   </varray>
   <i name="volume">     16.47843097 </i>
   <varray name="rec_basis" >
    <v>      -0.24755672      -0.24755672       0.24755672 </v>
    <v>       0.24755672       0.24755672       0.24755672 </v>
    <v>      -0.24755672       0.24755672      -0.24755672 </v>
   </varray>
  </crystal>
  <varray name="positions" >
   <v>       0.00000000       0.00000000       0.00000000 </v>
  </varray>
 </structure>
</modeling>
