unknown system                          
   1.0000000000000000     
    -2.019006   -0.000000    2.019006
     0.000000    2.019006    2.019006
    -2.019006    2.019006   -0.000000
   Al
     1
Direct
  0.000000  0.000000  0.000000

   32   32   32
 -.13772697445E+00 -.58817661894E-01 0.17233292900E+00 0.53803874020E+00 0.10070264774E+01
 0.15352499782E+01 0.20706817088E+01 0.25613840938E+01 0.29645820659E+01 0.32542868823E+01
 0.34255152207E+01 0.34938011543E+01 0.34897533992E+01 0.34468726289E+01 0.33929781587E+01
 0.33508339585E+01 0.33351133841E+01 0.33508339585E+01 0.33929781587E+01 0.34468726289E+01
 0.34897533992E+01 0.34938011543E+01 0.34255152207E+01 0.32542868823E+01 0.29645820659E+01
 0.25613840938E+01 0.20706817088E+01 0.15352499782E+01 0.10070264774E+01 0.53803874020E+00
 0.17233292900E+00 -.58817661894E-01 -.58817661894E-01 0.96229950797E-01 0.39475415970E+00
 0.81222746917E+00 0.13106898736E+01 0.18415928502E+01 0.23524209788E+01 0.27954594609E+01
 0.31362682122E+01 0.33596750413E+01 0.34716511567E+01 0.34962609868E+01 0.34672436457E+01
 0.34146198264E+01 0.33637381700E+01 0.33333890299E+01 0.33333890299E+01 0.33637381698E+01
 0.34146198262E+01 0.34672436455E+01 0.34962609866E+01 0.34716511564E+01 0.33596750410E+01
 0.31362682119E+01 0.27954594607E+01 0.23524209788E+01 0.18415928504E+01 0.13106898740E+01
 0.81222746968E+00 0.39475416021E+00 0.96229951249E-01 -.58817661721E-01 0.17233292900E+00
 0.39475415970E+00 0.74519248945E+00 0.11921641577E+01 0.16924142102E+01 0.21958353541E+01
 0.26531999340E+01 0.30246621867E+01 0.32868047572E+01 0.34363890193E+01 0.34895794164E+01
 0.34763711326E+01 0.34282110995E+01 0.33716367392E+01 0.33283807877E+01 0.33123778567E+01
 0.33283807876E+01 0.33716367390E+01 0.34282110993E+01 0.34763711323E+01 0.34895794161E+01
 0.34363890190E+01 0.32868047568E+01 0.30246621864E+01 0.26531999338E+01 0.21958353541E+01
 0.16924142105E+01 0.11921641583E+01 0.74519249021E+00 0.39475416039E+00 0.17233292942E+00
 0.96229951249E-01 0.53803874020E+00 0.81222746917E+00 0.11921641577E+01 0.16406808681E+01
 0.21120914314E+01 0.25585548945E+01 0.29379378741E+01 0.32211797473E+01 0.33972757814E+01
 0.34744116857E+01 0.34766047792E+01 0.34344759357E+01 0.33747281010E+01 0.33206148618E+01
 0.32891476557E+01 0.32891476556E+01 0.33206148618E+01 0.33747281010E+01 0.34344759356E+01
 0.34766047791E+01 0.34744116855E+01 0.33972757811E+01 0.32211797469E+01 0.29379378738E+01
 0.25585548943E+01 0.21120914314E+01 0.16406808683E+01 0.11921641582E+01 0.81222746967E+00
 0.53803874062E+00 0.39475416039E+00 0.39475416021E+00 0.10070264774E+01 0.13106898736E+01
 0.16924142102E+01 0.21120914314E+01 0.25253867540E+01 0.28906011683E+01 0.31757597581E+01
 0.33641774832E+01 0.34569685218E+01 0.34715322097E+01 0.34352262197E+01 0.33739490363E+01
 0.33110364339E+01 0.32653354383E+01 0.32487568545E+01 0.32653354383E+01 0.33110364340E+01
 0.33739490364E+01 0.34352262197E+01 0.34715322096E+01 0.34569685216E+01 0.33641774829E+01
 0.31757597578E+01 0.28906011681E+01 0.25253867538E+01 0.21120914312E+01 0.16924142101E+01
 0.13106898736E+01 0.10070264774E+01 0.81222746967E+00 0.74519249021E+00 0.81222746968E+00
 0.15352499782E+01 0.18415928502E+01 0.21958353541E+01 0.25585548945E+01 0.28906011683E+01
 0.31595471399E+01 0.33453040926E+01 0.34434444450E+01 0.34651325937E+01 0.34329785048E+01
 0.33708687780E+01 0.33010045288E+01 0.32428049691E+01 0.32101517036E+01 0.32101517037E+01
 0.32428049692E+01 0.33010045289E+01 0.33708687780E+01 0.34329785047E+01 0.34651325936E+01
 0.34434444449E+01 0.33453040925E+01 0.31595471398E+01 0.28906011682E+01 0.25585548943E+01
 0.21958353537E+01 0.18415928496E+01 0.15352499776E+01 0.13106898736E+01 0.11921641582E+01
 0.11921641583E+01 0.13106898740E+01 0.20706817088E+01 0.23524209788E+01 0.26531999340E+01
 0.29379378741E+01 0.31757597581E+01 0.33453040926E+01 0.34383813736E+01 0.34608968045E+01
 0.34303213230E+01 0.33673597894E+01 0.32921438153E+01 0.32235340841E+01 0.31762722289E+01
 0.31594957389E+01 0.31762722289E+01 0.32235340841E+01 0.32921438152E+01 0.33673597891E+01
 0.34303213226E+01 0.34608968042E+01 0.34383813734E+01 0.33453040926E+01 0.31757597582E+01
 0.29379378742E+01 0.26531999339E+01 0.23524209783E+01 0.20706817081E+01 0.18415928496E+01
 0.16924142101E+01 0.16406808683E+01 0.16924142105E+01 0.18415928504E+01 0.25613840938E+01
 0.27954594609E+01 0.30246621867E+01 0.32211797473E+01 0.33641774832E+01 0.34434444450E+01
 0.34608968045E+01 0.34291956043E+01 0.33651060598E+01 0.32860407898E+01 0.32094058745E+01
 0.31498159066E+01 0.31174506083E+01 0.31174506084E+01 0.31498159066E+01 0.32094058744E+01
 0.32860407895E+01 0.33651060592E+01 0.34291956037E+01 0.34608968041E+01 0.34434444448E+01
 0.33641774832E+01 0.32211797475E+01 0.30246621869E+01 0.27954594609E+01 0.25613840935E+01
 0.23524209783E+01 0.21958353537E+01 0.21120914312E+01 0.21120914314E+01 0.21958353541E+01
 0.23524209788E+01 0.29645820659E+01 0.31362682122E+01 0.32868047572E+01 0.33972757814E+01
 0.34569685218E+01 0.34651325937E+01 0.34303213230E+01 0.33651060598E+01 0.32838629629E+01
 0.32019223671E+01 0.31329771237E+01 0.30873980491E+01 0.30715032423E+01 0.30873980492E+01
 0.31329771238E+01 0.32019223670E+01 0.32838629626E+01 0.33651060592E+01 0.34303213224E+01
 0.34651325931E+01 0.34569685214E+01 0.33972757814E+01 0.32868047574E+01 0.31362682124E+01
 0.29645820662E+01 0.27954594609E+01 0.26531999339E+01 0.25585548943E+01 0.25253867538E+01
 0.25585548943E+01 0.26531999338E+01 0.27954594607E+01 0.32542868823E+01 0.33596750413E+01
 0.34363890193E+01 0.34744116857E+01 0.34715322097E+01 0.34329785048E+01 0.33673597894E+01
 0.32860407898E+01 0.32019223671E+01 0.31271965816E+01 0.30717465032E+01 0.30423294142E+01
 0.30423294143E+01 0.30717465033E+01 0.31271965818E+01 0.32019223672E+01 0.32860407898E+01
 0.33673597891E+01 0.34329785043E+01 0.34715322091E+01 0.34744116852E+01 0.34363890190E+01
 0.33596750413E+01 0.32542868826E+01 0.31362682124E+01 0.30246621869E+01 0.29379378742E+01
 0.28906011682E+01 0.28906011681E+01 0.29379378738E+01 0.30246621864E+01 0.31362682119E+01
 0.34255152207E+01 0.34716511567E+01 0.34895794164E+01 0.34766047792E+01 0.34352262197E+01
 0.33708687780E+01 0.32921438153E+01 0.32094058745E+01 0.31329771237E+01 0.30717465032E+01
 0.30323346074E+01 0.30187522197E+01 0.30323346074E+01 0.30717465033E+01 0.31329771239E+01
 0.32094058748E+01 0.32921438156E+01 0.33708687781E+01 0.34352262195E+01 0.34766047787E+01
 0.34895794159E+01 0.34716511561E+01 0.34255152204E+01 0.33596750413E+01 0.32868047574E+01
 0.32211797475E+01 0.31757597582E+01 0.31595471398E+01 0.31757597578E+01 0.32211797469E+01
 0.32868047568E+01 0.33596750410E+01 0.34938011543E+01 0.34962609868E+01 0.34763711326E+01
 0.34344759357E+01 0.33739490363E+01 0.33010045288E+01 0.32235340841E+01 0.31498159066E+01
 0.30873980491E+01 0.30423294142E+01 0.30187522197E+01 0.30187522196E+01 0.30423294141E+01
 0.30873980491E+01 0.31498159068E+01 0.32235340845E+01 0.33010045293E+01 0.33739490367E+01
 0.34344759358E+01 0.34763711322E+01 0.34962609863E+01 0.34938011538E+01 0.34716511561E+01
 0.34363890190E+01 0.33972757814E+01 0.33641774832E+01 0.33453040926E+01 0.33453040925E+01
 0.33641774829E+01 0.33972757811E+01 0.34363890190E+01 0.34716511564E+01 0.34897533992E+01
 0.34672436457E+01 0.34282110995E+01 0.33747281010E+01 0.33110364339E+01 0.32428049691E+01
 0.31762722289E+01 0.31174506083E+01 0.30715032423E+01 0.30423294143E+01 0.30323346074E+01
 0.30423294141E+01 0.30715032421E+01 0.31174506082E+01 0.31762722289E+01 0.32428049693E+01
 0.33110364343E+01 0.33747281014E+01 0.34282110997E+01 0.34672436458E+01 0.34897533989E+01
 0.34962609863E+01 0.34895794159E+01 0.34744116852E+01 0.34569685214E+01 0.34434444448E+01
 0.34383813734E+01 0.34434444449E+01 0.34569685216E+01 0.34744116855E+01 0.34895794161E+01
 0.34962609866E+01 0.34468726289E+01 0.34146198264E+01 0.33716367392E+01 0.33206148618E+01
 0.32653354383E+01 0.32101517036E+01 0.31594957389E+01 0.31174506084E+01 0.30873980492E+01
 0.30717465033E+01 0.30717465033E+01 0.30873980491E+01 0.31174506082E+01 0.31594957387E+01
 0.32101517033E+01 0.32653354381E+01 0.33206148618E+01 0.33716367394E+01 0.34146198268E+01
 0.34468726293E+01 0.34672436458E+01 0.34763711322E+01 0.34766047787E+01 0.34715322091E+01
 0.34651325931E+01 0.34608968041E+01 0.34608968042E+01 0.34651325936E+01 0.34715322096E+01
 0.34766047791E+01 0.34763711323E+01 0.34672436455E+01 0.33929781587E+01 0.33637381700E+01
 0.33283807877E+01 0.32891476557E+01 0.32487568545E+01 0.32101517037E+01 0.31762722289E+01
 0.31498159066E+01 0.31329771238E+01 0.31271965818E+01 0.31329771239E+01 0.31498159068E+01
 0.31762722289E+01 0.32101517033E+01 0.32487568540E+01 0.32891476551E+01 0.33283807873E+01
 0.33637381700E+01 0.33929781591E+01 0.34146198268E+01 0.34282110997E+01 0.34344759358E+01
 0.34352262195E+01 0.34329785043E+01 0.34303213224E+01 0.34291956037E+01 0.34303213226E+01
 0.34329785047E+01 0.34352262197E+01 0.34344759356E+01 0.34282110993E+01 0.34146198262E+01
 0.33508339585E+01 0.33333890299E+01 0.33123778567E+01 0.32891476556E+01 0.32653354383E+01
 0.32428049692E+01 0.32235340841E+01 0.32094058744E+01 0.32019223670E+01 0.32019223672E+01
 0.32094058748E+01 0.32235340845E+01 0.32428049693E+01 0.32653354381E+01 0.32891476551E+01
 0.33123778561E+01 0.33333890294E+01 0.33508339583E+01 0.33637381700E+01 0.33716367394E+01
 0.33747281014E+01 0.33739490367E+01 0.33708687781E+01 0.33673597891E+01 0.33651060592E+01
 0.33651060592E+01 0.33673597891E+01 0.33708687780E+01 0.33739490364E+01 0.33747281010E+01
 0.33716367390E+01 0.33637381698E+01 0.33351133841E+01 0.33333890299E+01 0.33283807876E+01
 0.33206148618E+01 0.33110364340E+01 0.33010045289E+01 0.32921438152E+01 0.32860407895E+01
 0.32838629626E+01 0.32860407898E+01 0.32921438156E+01 0.33010045293E+01 0.33110364343E+01
 0.33206148618E+01 0.33283807873E+01 0.33333890294E+01 0.33351133835E+01 0.33333890294E+01
 0.33283807873E+01 0.33206148618E+01 0.33110364343E+01 0.33010045293E+01 0.32921438156E+01
 0.32860407898E+01 0.32838629626E+01 0.32860407895E+01 0.32921438152E+01 0.33010045289E+01
 0.33110364340E+01 0.33206148618E+01 0.33283807876E+01 0.33333890299E+01 0.33508339585E+01
 0.33637381698E+01 0.33716367390E+01 0.33747281010E+01 0.33739490364E+01 0.33708687780E+01
 0.33673597891E+01 0.33651060592E+01 0.33651060592E+01 0.33673597891E+01 0.33708687781E+01
 0.33739490367E+01 0.33747281014E+01 0.33716367394E+01 0.33637381700E+01 0.33508339583E+01
 0.33333890294E+01 0.33123778561E+01 0.32891476551E+01 0.32653354381E+01 0.32428049693E+01
 0.32235340845E+01 0.32094058748E+01 0.32019223672E+01 0.32019223670E+01 0.32094058744E+01
 0.32235340841E+01 0.32428049692E+01 0.32653354383E+01 0.32891476556E+01 0.33123778567E+01
 0.33333890299E+01 0.33929781587E+01 0.34146198262E+01 0.34282110993E+01 0.34344759356E+01
 0.34352262197E+01 0.34329785047E+01 0.34303213226E+01 0.34291956037E+01 0.34303213224E+01
 0.34329785043E+01 0.34352262195E+01 0.34344759358E+01 0.34282110997E+01 0.34146198268E+01
 0.33929781591E+01 0.33637381700E+01 0.33283807873E+01 0.32891476551E+01 0.32487568540E+01
 0.32101517033E+01 0.31762722289E+01 0.31498159068E+01 0.31329771239E+01 0.31271965818E+01
 0.31329771238E+01 0.31498159066E+01 0.31762722289E+01 0.32101517037E+01 0.32487568545E+01
 0.32891476557E+01 0.33283807877E+01 0.33637381700E+01 0.34468726289E+01 0.34672436455E+01
 0.34763711323E+01 0.34766047791E+01 0.34715322096E+01 0.34651325936E+01 0.34608968042E+01
 0.34608968041E+01 0.34651325931E+01 0.34715322091E+01 0.34766047787E+01 0.34763711322E+01
 0.34672436458E+01 0.34468726293E+01 0.34146198268E+01 0.33716367394E+01 0.33206148618E+01
 0.32653354381E+01 0.32101517033E+01 0.31594957387E+01 0.31174506082E+01 0.30873980491E+01
 0.30717465033E+01 0.30717465033E+01 0.30873980492E+01 0.31174506084E+01 0.31594957389E+01
 0.32101517036E+01 0.32653354383E+01 0.33206148618E+01 0.33716367392E+01 0.34146198264E+01
 0.34897533992E+01 0.34962609866E+01 0.34895794161E+01 0.34744116855E+01 0.34569685216E+01
 0.34434444449E+01 0.34383813734E+01 0.34434444448E+01 0.34569685214E+01 0.34744116852E+01
 0.34895794159E+01 0.34962609863E+01 0.34897533989E+01 0.34672436458E+01 0.34282110997E+01
 0.33747281014E+01 0.33110364343E+01 0.32428049693E+01 0.31762722289E+01 0.31174506082E+01
 0.30715032421E+01 0.30423294141E+01 0.30323346074E+01 0.30423294143E+01 0.30715032423E+01
 0.31174506083E+01 0.31762722289E+01 0.32428049691E+01 0.33110364339E+01 0.33747281010E+01
 0.34282110995E+01 0.34672436457E+01 0.34938011543E+01 0.34716511564E+01 0.34363890190E+01
 0.33972757811E+01 0.33641774829E+01 0.33453040925E+01 0.33453040926E+01 0.33641774832E+01
 0.33972757814E+01 0.34363890190E+01 0.34716511561E+01 0.34938011538E+01 0.34962609863E+01
 0.34763711322E+01 0.34344759358E+01 0.33739490367E+01 0.33010045293E+01 0.32235340845E+01
 0.31498159068E+01 0.30873980491E+01 0.30423294141E+01 0.30187522196E+01 0.30187522197E+01
 0.30423294142E+01 0.30873980491E+01 0.31498159066E+01 0.32235340841E+01 0.33010045288E+01
 0.33739490363E+01 0.34344759357E+01 0.34763711326E+01 0.34962609868E+01 0.34255152207E+01
 0.33596750410E+01 0.32868047568E+01 0.32211797469E+01 0.31757597578E+01 0.31595471398E+01
 0.31757597582E+01 0.32211797475E+01 0.32868047574E+01 0.33596750413E+01 0.34255152204E+01
 0.34716511561E+01 0.34895794159E+01 0.34766047787E+01 0.34352262195E+01 0.33708687781E+01
 0.32921438156E+01 0.32094058748E+01 0.31329771239E+01 0.30717465033E+01 0.30323346074E+01
 0.30187522197E+01 0.30323346074E+01 0.30717465032E+01 0.31329771237E+01 0.32094058745E+01
 0.32921438153E+01 0.33708687780E+01 0.34352262197E+01 0.34766047792E+01 0.34895794164E+01
 0.34716511567E+01 0.32542868823E+01 0.31362682119E+01 0.30246621864E+01 0.29379378738E+01
 0.28906011681E+01 0.28906011682E+01 0.29379378742E+01 0.30246621869E+01 0.31362682124E+01
 0.32542868826E+01 0.33596750413E+01 0.34363890190E+01 0.34744116852E+01 0.34715322091E+01
 0.34329785043E+01 0.33673597891E+01 0.32860407898E+01 0.32019223672E+01 0.31271965818E+01
 0.30717465033E+01 0.30423294143E+01 0.30423294142E+01 0.30717465032E+01 0.31271965816E+01
 0.32019223671E+01 0.32860407898E+01 0.33673597894E+01 0.34329785048E+01 0.34715322097E+01
 0.34744116857E+01 0.34363890193E+01 0.33596750413E+01 0.29645820659E+01 0.27954594607E+01
 0.26531999338E+01 0.25585548943E+01 0.25253867538E+01 0.25585548943E+01 0.26531999339E+01
 0.27954594609E+01 0.29645820662E+01 0.31362682124E+01 0.32868047574E+01 0.33972757814E+01
 0.34569685214E+01 0.34651325931E+01 0.34303213224E+01 0.33651060592E+01 0.32838629626E+01
 0.32019223670E+01 0.31329771238E+01 0.30873980492E+01 0.30715032423E+01 0.30873980491E+01
 0.31329771237E+01 0.32019223671E+01 0.32838629629E+01 0.33651060598E+01 0.34303213230E+01
 0.34651325937E+01 0.34569685218E+01 0.33972757814E+01 0.32868047572E+01 0.31362682122E+01
 0.25613840938E+01 0.23524209788E+01 0.21958353541E+01 0.21120914314E+01 0.21120914312E+01
 0.21958353537E+01 0.23524209783E+01 0.25613840935E+01 0.27954594609E+01 0.30246621869E+01
 0.32211797475E+01 0.33641774832E+01 0.34434444448E+01 0.34608968041E+01 0.34291956037E+01
 0.33651060592E+01 0.32860407895E+01 0.32094058744E+01 0.31498159066E+01 0.31174506084E+01
 0.31174506083E+01 0.31498159066E+01 0.32094058745E+01 0.32860407898E+01 0.33651060598E+01
 0.34291956043E+01 0.34608968045E+01 0.34434444450E+01 0.33641774832E+01 0.32211797473E+01
 0.30246621867E+01 0.27954594609E+01 0.20706817088E+01 0.18415928504E+01 0.16924142105E+01
 0.16406808683E+01 0.16924142101E+01 0.18415928496E+01 0.20706817081E+01 0.23524209783E+01
 0.26531999339E+01 0.29379378742E+01 0.31757597582E+01 0.33453040926E+01 0.34383813734E+01
 0.34608968042E+01 0.34303213226E+01 0.33673597891E+01 0.32921438152E+01 0.32235340841E+01
 0.31762722289E+01 0.31594957389E+01 0.31762722289E+01 0.32235340841E+01 0.32921438153E+01
 0.33673597894E+01 0.34303213230E+01 0.34608968045E+01 0.34383813736E+01 0.33453040926E+01
 0.31757597581E+01 0.29379378741E+01 0.26531999340E+01 0.23524209788E+01 0.15352499782E+01
 0.13106898740E+01 0.11921641583E+01 0.11921641582E+01 0.13106898736E+01 0.15352499776E+01
 0.18415928496E+01 0.21958353537E+01 0.25585548943E+01 0.28906011682E+01 0.31595471398E+01
 0.33453040925E+01 0.34434444449E+01 0.34651325936E+01 0.34329785047E+01 0.33708687780E+01
 0.33010045289E+01 0.32428049692E+01 0.32101517037E+01 0.32101517036E+01 0.32428049691E+01
 0.33010045288E+01 0.33708687780E+01 0.34329785048E+01 0.34651325937E+01 0.34434444450E+01
 0.33453040926E+01 0.31595471399E+01 0.28906011683E+01 0.25585548945E+01 0.21958353541E+01
 0.18415928502E+01 0.10070264774E+01 0.81222746968E+00 0.74519249021E+00 0.81222746967E+00
 0.10070264774E+01 0.13106898736E+01 0.16924142101E+01 0.21120914312E+01 0.25253867538E+01
 0.28906011681E+01 0.31757597578E+01 0.33641774829E+01 0.34569685216E+01 0.34715322096E+01
 0.34352262197E+01 0.33739490364E+01 0.33110364340E+01 0.32653354383E+01 0.32487568545E+01
 0.32653354383E+01 0.33110364339E+01 0.33739490363E+01 0.34352262197E+01 0.34715322097E+01
 0.34569685218E+01 0.33641774832E+01 0.31757597581E+01 0.28906011683E+01 0.25253867540E+01
 0.21120914314E+01 0.16924142102E+01 0.13106898736E+01 0.53803874020E+00 0.39475416021E+00
 0.39475416039E+00 0.53803874062E+00 0.81222746967E+00 0.11921641582E+01 0.16406808683E+01
 0.21120914314E+01 0.25585548943E+01 0.29379378738E+01 0.32211797469E+01 0.33972757811E+01
 0.34744116855E+01 0.34766047791E+01 0.34344759356E+01 0.33747281010E+01 0.33206148618E+01
 0.32891476556E+01 0.32891476557E+01 0.33206148618E+01 0.33747281010E+01 0.34344759357E+01
 0.34766047792E+01 0.34744116857E+01 0.33972757814E+01 0.32211797473E+01 0.29379378741E+01
 0.25585548945E+01 0.21120914314E+01 0.16406808681E+01 0.11921641577E+01 0.81222746917E+00
 0.17233292900E+00 0.96229951249E-01 0.17233292942E+00 0.39475416039E+00 0.74519249021E+00
 0.11921641583E+01 0.16924142105E+01 0.21958353541E+01 0.26531999338E+01 0.30246621864E+01
 0.32868047568E+01 0.34363890190E+01 0.34895794161E+01 0.34763711323E+01 0.34282110993E+01
 0.33716367390E+01 0.33283807876E+01 0.33123778567E+01 0.33283807877E+01 0.33716367392E+01
 0.34282110995E+01 0.34763711326E+01 0.34895794164E+01 0.34363890193E+01 0.32868047572E+01
 0.30246621867E+01 0.26531999340E+01 0.21958353541E+01 0.16924142102E+01 0.11921641577E+01
 0.74519248945E+00 0.39475415970E+00 -.58817661894E-01 -.58817661721E-01 0.96229951249E-01
 0.39475416021E+00 0.81222746968E+00 0.13106898740E+01 0.18415928504E+01 0.23524209788E+01
 0.27954594607E+01 0.31362682119E+01 0.33596750410E+01 0.34716511564E+01 0.34962609866E+01
 0.34672436455E+01 0.34146198262E+01 0.33637381698E+01 0.33333890299E+01 0.33333890299E+01
 0.33637381700E+01 0.34146198264E+01 0.34672436457E+01 0.34962609868E+01 0.34716511567E+01
 0.33596750413E+01 0.31362682122E+01 0.27954594609E+01 0.23524209788E+01 0.18415928502E+01
 0.13106898736E+01 0.81222746917E+00 0.39475415970E+00 0.96229950797E-01 -.58817661894E-01
 0.96229950797E-01 0.39475415970E+00 0.81222746917E+00 0.13106898736E+01 0.18415928502E+01
 0.23524209788E+01 0.27954594609E+01 0.31362682122E+01 0.33596750413E+01 0.34716511567E+01
 0.34962609868E+01 0.34672436457E+01 0.34146198264E+01 0.33637381700E+01 0.33333890299E+01
 0.33333890299E+01 0.33637381698E+01 0.34146198262E+01 0.34672436455E+01 0.34962609866E+01
 0.34716511564E+01 0.33596750410E+01 0.31362682119E+01 0.27954594607E+01 0.23524209788E+01
 0.18415928504E+01 0.13106898740E+01 0.81222746968E+00 0.39475416021E+00 0.96229951249E-01
 -.58817661721E-01 0.96229950797E-01 0.32239887878E+00 0.67908300425E+00 0.11346170691E+01
 0.16452806220E+01 0.21602207578E+01 0.26292919104E+01 0.30117130534E+01 0.32832702044E+01
 0.34402003771E+01 0.34985023638E+01 0.34884119037E+01 0.34420688171E+01 0.33864298976E+01
 0.33435714075E+01 0.33276719276E+01 0.33435714074E+01 0.33864298973E+01 0.34420688167E+01
 0.34884119033E+01 0.34985023634E+01 0.34402003767E+01 0.32832702039E+01 0.30117130530E+01
 0.26292919102E+01 0.21602207579E+01 0.16452806225E+01 0.11346170699E+01 0.67908300519E+00
 0.32239887964E+00 0.96229951320E-01 0.18884479505E-01 0.39475415970E+00 0.67908300425E+00
 0.10739032029E+01 0.15412974864E+01 0.20343113777E+01 0.25034410918E+01 0.29047465069E+01
 0.32075052397E+01 0.33994687976E+01 0.34882093218E+01 0.34978504336E+01 0.34601436524E+01
 0.34028173049E+01 0.33498219646E+01 0.33187519110E+01 0.33187519110E+01 0.33498219644E+01
 0.34028173046E+01 0.34601436522E+01 0.34978504332E+01 0.34882093215E+01 0.33994687971E+01
 0.32075052392E+01 0.29047465064E+01 0.25034410916E+01 0.20343113778E+01 0.15412974869E+01
 0.10739032038E+01 0.67908300520E+00 0.39475416039E+00 0.24637092951E+00 0.24637092927E+00
 0.81222746917E+00 0.11346170691E+01 0.15412974864E+01 0.19905211966E+01 0.24357357174E+01
 0.28327198612E+01 0.31470403594E+01 0.33600023444E+01 0.34714970685E+01 0.34986908590E+01
 0.34700179388E+01 0.34131224741E+01 0.33523546233E+01 0.33075035882E+01 0.32911317169E+01
 0.33075035882E+01 0.33523546232E+01 0.34131224740E+01 0.34700179388E+01 0.34986908589E+01
 0.34714970682E+01 0.33600023441E+01 0.31470403590E+01 0.28327198608E+01 0.24357357171E+01
 0.19905211966E+01 0.15412974866E+01 0.11346170695E+01 0.81222746964E+00 0.60590806515E+00
 0.53499582965E+00 0.60590806486E+00 0.13106898736E+01 0.16452806220E+01 0.20343113777E+01
 0.24357357174E+01 0.28073369343E+01 0.31135742758E+01 0.33316502260E+01 0.34552696936E+01
 0.34948892835E+01 0.34738898412E+01 0.34183871651E+01 0.33519029232E+01 0.32951091352E+01
 0.32628876709E+01 0.32628876709E+01 0.32951091352E+01 0.33519029233E+01 0.34183871651E+01
 0.34738898413E+01 0.34948892835E+01 0.34552696936E+01 0.33316502259E+01 0.31135742756E+01
 0.28073369341E+01 0.24357357171E+01 0.20343113774E+01 0.16452806218E+01 0.13106898735E+01
 0.10663460746E+01 0.93766828889E+00 0.93766828894E+00 0.10663460747E+01 0.18415928502E+01
 0.21602207578E+01 0.25034410918E+01 0.28327198612E+01 0.31135742758E+01 0.33213649386E+01
 0.34454518541E+01 0.34905238816E+01 0.34744169956E+01 0.34202364091E+01 0.33496615926E+01
 0.32830202475E+01 0.32363586659E+01 0.32196820471E+01 0.32363586659E+01 0.32830202476E+01
 0.33496615926E+01 0.34202364090E+01 0.34744169956E+01 0.34905238816E+01 0.34454518541E+01
 0.33213649387E+01 0.31135742759E+01 0.28327198611E+01 0.25034410916E+01 0.21602207573E+01
 0.18415928496E+01 0.15840689961E+01 0.14170108275E+01 0.13591845123E+01 0.14170108278E+01
 0.15840689967E+01 0.23524209788E+01 0.26292919104E+01 0.29047465069E+01 0.31470403594E+01
 0.33316502260E+01 0.34454518541E+01 0.34886855221E+01 0.34739790475E+01 0.34204305644E+01
 0.33470550247E+01 0.32728242824E+01 0.32138720551E+01 0.31815241471E+01 0.31815241471E+01
 0.32138720551E+01 0.32728242824E+01 0.33470550245E+01 0.34204305641E+01 0.34739790472E+01
 0.34886855220E+01 0.34454518542E+01 0.33316502263E+01 0.31470403598E+01 0.29047465070E+01
 0.26292919103E+01 0.23524209783E+01 0.21077919085E+01 0.19256815229E+01 0.18286458554E+01
 0.18286458556E+01 0.19256815234E+01 0.21077919092E+01 0.27954594609E+01 0.30117130534E+01
 0.32075052397E+01 0.33600023444E+01 0.34552696936E+01 0.34905238816E+01 0.34739790475E+01
 0.34203256048E+01 0.33453692345E+01 0.32659958353E+01 0.31975220263E+01 0.31516564107E+01
 0.31355695385E+01 0.31516564107E+01 0.31975220263E+01 0.32659958352E+01 0.33453692342E+01
 0.34203256043E+01 0.34739790471E+01 0.34905238814E+01 0.34552696937E+01 0.33600023448E+01
 0.32075052401E+01 0.30117130536E+01 0.27954594609E+01 0.25865179010E+01 0.24128735595E+01
 0.22981741747E+01 0.22581132479E+01 0.22981741750E+01 0.24128735598E+01 0.25865179012E+01
 0.31362682122E+01 0.32832702044E+01 0.33994687976E+01 0.34714970685E+01 0.34948892835E+01
 0.34744169956E+01 0.34204305644E+01 0.33453692345E+01 0.32635913691E+01 0.31889107266E+01
 0.31326383416E+01 0.31025500366E+01 0.31025500367E+01 0.31326383417E+01 0.31889107266E+01
 0.32635913691E+01 0.33453692343E+01 0.34204305641E+01 0.34744169952E+01 0.34948892832E+01
 0.34714970683E+01 0.33994687977E+01 0.32832702047E+01 0.31362682125E+01 0.29784426834E+01
 0.28327940651E+01 0.27212441976E+01 0.26608290792E+01 0.26608290791E+01 0.27212441974E+01
 0.28327940648E+01 0.29784426831E+01 0.33596750413E+01 0.34402003771E+01 0.34882093218E+01
 0.34986908590E+01 0.34738898412E+01 0.34202364091E+01 0.33470550247E+01 0.32659958353E+01
 0.31889107266E+01 0.31261105903E+01 0.30853101896E+01 0.30711904360E+01 0.30853101897E+01
 0.31261105904E+01 0.31889107268E+01 0.32659958355E+01 0.33470550248E+01 0.34202364090E+01
 0.34738898409E+01 0.34986908586E+01 0.34882093214E+01 0.34402003768E+01 0.33596750413E+01
 0.32584119256E+01 0.31528063742E+01 0.30607401704E+01 0.29981501892E+01 0.29759885229E+01
 0.29981501889E+01 0.30607401700E+01 0.31528063738E+01 0.32584119253E+01 0.34716511567E+01
 0.34985023638E+01 0.34978504336E+01 0.34700179388E+01 0.34183871651E+01 0.33496615926E+01
 0.32728242824E+01 0.31975220263E+01 0.31326383416E+01 0.30853101896E+01 0.30604193874E+01
 0.30604193874E+01 0.30853101896E+01 0.31326383417E+01 0.31975220266E+01 0.32728242829E+01
 0.33496615930E+01 0.34183871653E+01 0.34700179387E+01 0.34978504331E+01 0.34985023633E+01
 0.34716511561E+01 0.34220003348E+01 0.33591201147E+01 0.32955495452E+01 0.32441877563E+01
 0.32155587863E+01 0.32155587862E+01 0.32441877560E+01 0.32955495449E+01 0.33591201146E+01
 0.34220003352E+01 0.34962609868E+01 0.34884119037E+01 0.34601436524E+01 0.34131224741E+01
 0.33519029232E+01 0.32830202475E+01 0.32138720551E+01 0.31516564107E+01 0.31025500366E+01
 0.30711904360E+01 0.30604193874E+01 0.30711904359E+01 0.31025500365E+01 0.31516564107E+01
 0.32138720553E+01 0.32830202480E+01 0.33519029237E+01 0.34131224744E+01 0.34601436525E+01
 0.34884119034E+01 0.34962609863E+01 0.34849328756E+01 0.34584343985E+01 0.34239246101E+01
 0.33902663427E+01 0.33659638309E+01 0.33571237395E+01 0.33659638310E+01 0.33902663429E+01
 0.34239246105E+01 0.34584343990E+01 0.34849328761E+01 0.34672436457E+01 0.34420688171E+01
 0.34028173049E+01 0.33523546233E+01 0.32951091352E+01 0.32363586659E+01 0.31815241471E+01
 0.31355695385E+01 0.31025500367E+01 0.30853101897E+01 0.30853101896E+01 0.31025500365E+01
 0.31355695383E+01 0.31815241470E+01 0.32363586658E+01 0.32951091353E+01 0.33523546236E+01
 0.34028173052E+01 0.34420688174E+01 0.34672436459E+01 0.34776045478E+01 0.34747847677E+01
 0.34624609952E+01 0.34456593206E+01 0.34301267530E+01 0.34208959548E+01 0.34208959549E+01
 0.34301267535E+01 0.34456593212E+01 0.34624609958E+01 0.34747847682E+01 0.34776045480E+01
 0.34146198264E+01 0.33864298976E+01 0.33498219646E+01 0.33075035882E+01 0.32628876709E+01
 0.32196820471E+01 0.31815241471E+01 0.31516564107E+01 0.31326383417E+01 0.31261105904E+01
 0.31326383417E+01 0.31516564107E+01 0.31815241470E+01 0.32196820467E+01 0.32628876704E+01
 0.33075035879E+01 0.33498219645E+01 0.33864298978E+01 0.34146198268E+01 0.34328117511E+01
 0.34408939452E+01 0.34403485263E+01 0.34340445541E+01 0.34256624795E+01 0.34188378754E+01
 0.34162357748E+01 0.34188378759E+01 0.34256624802E+01 0.34340445547E+01 0.34403485265E+01
 0.34408939450E+01 0.34328117506E+01 0.33637381700E+01 0.33435714075E+01 0.33187519110E+01
 0.32911317169E+01 0.32628876709E+01 0.32363586659E+01 0.32138720551E+01 0.31975220263E+01
 0.31889107266E+01 0.31889107268E+01 0.31975220266E+01 0.32138720553E+01 0.32363586658E+01
 0.32628876704E+01 0.32911317162E+01 0.33187519104E+01 0.33435714072E+01 0.33637381701E+01
 0.33779226129E+01 0.33855515886E+01 0.33870103652E+01 0.33836971222E+01 0.33778273130E+01
 0.33719641898E+01 0.33683692977E+01 0.33683692978E+01 0.33719641901E+01 0.33778273132E+01
 0.33836971222E+01 0.33870103649E+01 0.33855515881E+01 0.33779226125E+01 0.33333890299E+01
 0.33276719276E+01 0.33187519110E+01 0.33075035882E+01 0.32951091352E+01 0.32830202476E+01
 0.32728242824E+01 0.32659958352E+01 0.32635913691E+01 0.32659958355E+01 0.32728242829E+01
 0.32830202480E+01 0.32951091353E+01 0.33075035879E+01 0.33187519104E+01 0.33276719269E+01
 0.33333890294E+01 0.33353502088E+01 0.33333819377E+01 0.33278023302E+01 0.33195248600E+01
 0.33100502816E+01 0.33012659482E+01 0.32950537484E+01 0.32928107576E+01 0.32950537483E+01
 0.33012659481E+01 0.33100502814E+01 0.33195248596E+01 0.33278023299E+01 0.33333819376E+01
 0.33353502089E+01 0.33333890299E+01 0.33435714074E+01 0.33498219644E+01 0.33523546232E+01
 0.33519029233E+01 0.33496615926E+01 0.33470550245E+01 0.33453692342E+01 0.33453692343E+01
 0.33470550248E+01 0.33496615930E+01 0.33519029237E+01 0.33523546236E+01 0.33498219645E+01
 0.33435714072E+01 0.33333890294E+01 0.33195168742E+01 0.33025610371E+01 0.32834452755E+01
 0.32634187372E+01 0.32440588642E+01 0.32271849114E+01 0.32146332722E+01 0.32079242115E+01
 0.32079242114E+01 0.32146332718E+01 0.32271849109E+01 0.32440588639E+01 0.32634187372E+01
 0.32834452758E+01 0.33025610376E+01 0.33195168748E+01 0.33637381698E+01 0.33864298973E+01
 0.34028173046E+01 0.34131224740E+01 0.34183871651E+01 0.34202364090E+01 0.34204305641E+01
 0.34203256043E+01 0.34204305641E+01 0.34202364090E+01 0.34183871653E+01 0.34131224744E+01
 0.34028173052E+01 0.33864298978E+01 0.33637381701E+01 0.33353502088E+01 0.33025610371E+01
 0.32671600073E+01 0.32312653139E+01 0.31971987110E+01 0.31673580697E+01 0.31440351288E+01
 0.31291652695E+01 0.31240545111E+01 0.31291652693E+01 0.31440351285E+01 0.31673580696E+01
 0.31971987112E+01 0.32312653144E+01 0.32671600080E+01 0.33025610377E+01 0.33353502089E+01
 0.34146198262E+01 0.34420688167E+01 0.34601436522E+01 0.34700179388E+01 0.34738898413E+01
 0.34744169956E+01 0.34739790472E+01 0.34739790471E+01 0.34744169952E+01 0.34738898409E+01
 0.34700179387E+01 0.34601436525E+01 0.34420688174E+01 0.34146198268E+01 0.33779226129E+01
 0.33333819377E+01 0.32834452755E+01 0.32312653139E+01 0.31803538617E+01 0.31342672961E+01
 0.30963193553E+01 0.30693084322E+01 0.30552675231E+01 0.30552675230E+01 0.30693084321E+01
 0.30963193553E+01 0.31342672963E+01 0.31803538621E+01 0.32312653144E+01 0.32834452758E+01