unknown system                          
   1.0000000000000000     
    -2.019006   -0.000000    2.019006
     0.000000    2.019006    2.019006
    -2.019006    2.019006   -0.000000
   Al
     1
Direct
  0.000000  0.000000  0.000000

   32   32   32
 -.12760448974E+03 -.12561590449E+03 -.11959970227E+03 -.10968060011E+03 -.96309506218E+02
 -.80227926886E+02 -.62480965767E+02 -.45247305002E+02 -.29656747722E+02 -.18303938620E+02
 -.11876889941E+02 -.93904924609E+01 -.75384766123E+01 -.53535315953E+01 -.41410833243E+01
 -.32280675738E+01 -.30883759462E+01 -.32280675738E+01 -.41410833243E+01 -.53535315953E+01
 -.75384766123E+01 -.93904924609E+01 -.11876889941E+02 -.18303938620E+02 -.29656747722E+02
 -.45247305002E+02 -.62480965767E+02 -.80227926886E+02 -.96309506218E+02 -.10968060011E+03
 -.11959970227E+03 -.12561590449E+03 -.12561590449E+03 -.12159747804E+03 -.11357836854E+03
 -.10201003950E+03 -.87171557682E+02 -.70260952613E+02 -.52648670482E+02 -.36372937791E+02
 -.22773275419E+02 -.14175710283E+02 -.10329017002E+02 -.84349241253E+01 -.63221218066E+01
 -.45920328851E+01 -.35850862646E+01 -.30471087610E+01 -.30466737956E+01 -.35859607629E+01
 -.45901685112E+01 -.63258108363E+01 -.84281854909E+01 -.10341389077E+02 -.14152220405E+02
 -.22782494157E+02 -.36392881881E+02 -.52634099536E+02 -.70306952098E+02 -.87174888301E+02
 -.10200758224E+03 -.11362732949E+03 -.12158328945E+03 -.12556916689E+03 -.11959970227E+03
 -.11357836854E+03 -.10392403866E+03 -.90757293549E+02 -.75152033757E+02 -.58139059932E+02
 -.41724875707E+02 -.27151719765E+02 -.16855474108E+02 -.11374690671E+02 -.90973559421E+01
 -.72341026721E+01 -.50803719165E+01 -.39656545630E+01 -.30348840624E+01 -.29501040015E+01
 -.30338496155E+01 -.39678599338E+01 -.50766018972E+01 -.72386683917E+01 -.91023190508E+01
 -.11352755855E+02 -.16866881154E+02 -.27085822206E+02 -.41815568619E+02 -.58093901729E+02
 -.75206162803E+02 -.90757461887E+02 -.10392648052E+03 -.11358882008E+03 -.11959422193E+03
 -.12158328945E+03 -.10968060011E+03 -.10201003950E+03 -.90757293549E+02 -.76837134119E+02
 -.61024879334E+02 -.45145444228E+02 -.30559963082E+02 -.19230940928E+02 -.12483814489E+02
 -.96762455542E+01 -.78787431117E+01 -.57072385620E+01 -.41969520650E+01 -.32185633390E+01
 -.27302415239E+01 -.27442118762E+01 -.32050385058E+01 -.42096649693E+01 -.56966447855E+01
 -.78806162271E+01 -.96839227941E+01 -.12468537219E+02 -.19299297484E+02 -.30504825185E+02
 -.45177568393E+02 -.60997098398E+02 -.76814283216E+02 -.90790962347E+02 -.10197417920E+03
 -.10970366738E+03 -.11358882008E+03 -.11362732949E+03 -.96309506218E+02 -.87171557682E+02
 -.75152033757E+02 -.61024879334E+02 -.46322858099E+02 -.32455467929E+02 -.20870470456E+02
 -.13562220674E+02 -.10099961486E+02 -.83751172530E+01 -.62231339920E+01 -.44644464307E+01
 -.33625802885E+01 -.26193403476E+01 -.24576942782E+01 -.26155588212E+01 -.33702480338E+01
 -.44513149653E+01 -.62499756667E+01 -.83346545094E+01 -.10133777666E+02 -.13497380730E+02
 -.20932778770E+02 -.32444327896E+02 -.46350257711E+02 -.61078758971E+02 -.75124130151E+02
 -.87187869491E+02 -.96340096624E+02 -.10197417920E+03 -.10392648052E+03 -.10200758224E+03
 -.80227926886E+02 -.70260952613E+02 -.58139059932E+02 -.45145444228E+02 -.32455467929E+02
 -.21425580242E+02 -.14172775903E+02 -.10359756288E+02 -.86846832089E+01 -.66021579750E+01
 -.47376161096E+01 -.34579836729E+01 -.25991510402E+01 -.21791892602E+01 -.21972702654E+01
 -.25808039918E+01 -.34780516486E+01 -.47086906839E+01 -.66387875073E+01 -.86510990210E+01
 -.10406798111E+02 -.14163505370E+02 -.21443434037E+02 -.32487622603E+02 -.45081677843E+02
 -.58214943497E+02 -.70237189594E+02 -.80241076680E+02 -.87187869491E+02 -.90790962347E+02
 -.90757461887E+02 -.87174888301E+02 -.62480965767E+02 -.52648670482E+02 -.41724875707E+02
 -.30559963082E+02 -.20870470456E+02 -.14172775903E+02 -.10513917817E+02 -.88209345043E+01
 -.68909180118E+01 -.48929495312E+01 -.35850683622E+01 -.25379200046E+01 -.20463200031E+01
 -.17802092532E+01 -.20485052845E+01 -.25325040643E+01 -.35998166724E+01 -.48739579512E+01
 -.69030894879E+01 -.87861685096E+01 -.10509439523E+02 -.14191193536E+02 -.20826259500E+02
 -.30662391570E+02 -.41662249712E+02 -.52698233607E+02 -.62495407048E+02 -.70237189594E+02
 -.75124130151E+02 -.76814283216E+02 -.75206162803E+02 -.70306952098E+02 -.45247305002E+02
 -.36372937791E+02 -.27151719765E+02 -.19230940928E+02 -.13562220674E+02 -.10359756288E+02
 -.88209345043E+01 -.69266863607E+01 -.50148596279E+01 -.36131085858E+01 -.25778538734E+01
 -.18801531836E+01 -.15606249199E+01 -.15358153932E+01 -.19055793480E+01 -.25462961461E+01
 -.36432807239E+01 -.49978393489E+01 -.69552168365E+01 -.88331913017E+01 -.10329794178E+02
 -.13650582615E+02 -.19132831387E+02 -.27214392139E+02 -.36366838761E+02 -.45129398662E+02
 -.52698233607E+02 -.58214943497E+02 -.61078758971E+02 -.60997098398E+02 -.58093901729E+02
 -.52634099536E+02 -.29656747722E+02 -.22773275419E+02 -.16855474108E+02 -.12483814489E+02
 -.10099961486E+02 -.86846832089E+01 -.68909180118E+01 -.50148596279E+01 -.36658974248E+01
 -.25546638542E+01 -.18253377591E+01 -.13616006296E+01 -.12387143341E+01 -.13633335854E+01
 -.18276637071E+01 -.25574563652E+01 -.36482918466E+01 -.50237222359E+01 -.68323851249E+01
 -.87454504013E+01 -.99756101929E+01 -.12620571068E+02 -.16796205320E+02 -.22717685277E+02
 -.29827226199E+02 -.36366838761E+02 -.41662249712E+02 -.45081677843E+02 -.46350257711E+02
 -.45177568393E+02 -.41815568619E+02 -.36392881881E+02 -.18303938620E+02 -.14175710283E+02
 -.11374690671E+02 -.96762455542E+01 -.83751172530E+01 -.66021579750E+01 -.48929495312E+01
 -.36131085858E+01 -.25546638542E+01 -.17962593531E+01 -.12899627313E+01 -.10376004383E+01
 -.10304741941E+01 -.12908740999E+01 -.17897465526E+01 -.25745928122E+01 -.36040272778E+01
 -.49536808492E+01 -.65450894499E+01 -.84778695308E+01 -.95683826520E+01 -.11337127382E+02
 -.14351698638E+02 -.18069162323E+02 -.22717685277E+02 -.27214392139E+02 -.30662391570E+02
 -.32487622603E+02 -.32444327896E+02 -.30504825185E+02 -.27085822206E+02 -.22782494157E+02
 -.11876889941E+02 -.10329017002E+02 -.90973559421E+01 -.78787431117E+01 -.62231339920E+01
 -.47376161096E+01 -.35850683622E+01 -.25778538734E+01 -.18253377591E+01 -.12899627313E+01
 -.96002434869E+00 -.87143483925E+00 -.96499309034E+00 -.12943105444E+01 -.18077175984E+01
 -.25820003152E+01 -.35311989271E+01 -.47747203220E+01 -.61583065390E+01 -.79093144111E+01
 -.92335911862E+01 -.10082012146E+02 -.12021369046E+02 -.14351698638E+02 -.16796205320E+02
 -.19132831387E+02 -.20826259500E+02 -.21443434037E+02 -.20932778770E+02 -.19299297484E+02
 -.16866881154E+02 -.14152220405E+02 -.93904924609E+01 -.84349241253E+01 -.72341026721E+01
 -.57072385620E+01 -.44644464307E+01 -.34579836729E+01 -.25379200046E+01 -.18801531836E+01
 -.13616006296E+01 -.10376004383E+01 -.87143483925E+00 -.86708850235E+00 -.10330036938E+01
 -.13741791670E+01 -.18878366256E+01 -.25759333002E+01 -.34513199403E+01 -.44917428923E+01
 -.57242090521E+01 -.70822102250E+01 -.85977360178E+01 -.94282084566E+01 -.10082012146E+02
 -.11337127382E+02 -.12620571068E+02 -.13650582615E+02 -.14191193536E+02 -.14163505370E+02
 -.13497380730E+02 -.12468537219E+02 -.11352755855E+02 -.10341389077E+02 -.75384766123E+01
 -.63221218066E+01 -.50803719165E+01 -.41969520650E+01 -.33625802885E+01 -.25991510402E+01
 -.20463200031E+01 -.15606249199E+01 -.12387143341E+01 -.10304741941E+01 -.96499309034E+00
 -.10330036938E+01 -.12301270605E+01 -.15478548080E+01 -.20093003563E+01 -.25994614964E+01
 -.33330635372E+01 -.41943962970E+01 -.51827068131E+01 -.62675416475E+01 -.74251059265E+01
 -.85977360178E+01 -.92335911862E+01 -.95683826520E+01 -.99756101929E+01 -.10329794178E+02
 -.10509439523E+02 -.10406798111E+02 -.10133777666E+02 -.96839227941E+01 -.91023190508E+01
 -.84281854909E+01 -.53535315953E+01 -.45920328851E+01 -.39656545630E+01 -.32185633390E+01
 -.26193403476E+01 -.21791892602E+01 -.17802092532E+01 -.15358153932E+01 -.13633335854E+01
 -.12908740999E+01 -.12943105444E+01 -.13741791670E+01 -.15478548080E+01 -.18212053669E+01
 -.21831535848E+01 -.26513694689E+01 -.32145081284E+01 -.38786776467E+01 -.46217251953E+01
 -.54327385685E+01 -.62675416475E+01 -.70822102250E+01 -.79093144111E+01 -.84778695308E+01
 -.87454504013E+01 -.88331913017E+01 -.87861685096E+01 -.86510990210E+01 -.83346545094E+01
 -.78806162271E+01 -.72386683917E+01 -.63258108363E+01 -.41410833243E+01 -.35850862646E+01
 -.30348840624E+01 -.27302415239E+01 -.24576942782E+01 -.21972702654E+01 -.20485052845E+01
 -.19055793480E+01 -.18276637071E+01 -.17897465526E+01 -.18077175984E+01 -.18878366256E+01
 -.20093003563E+01 -.21831535848E+01 -.24269643449E+01 -.27349700931E+01 -.31187506257E+01
 -.35669962152E+01 -.40771061876E+01 -.46217251953E+01 -.51827068131E+01 -.57242090521E+01
 -.61583065390E+01 -.65450894499E+01 -.68323851249E+01 -.69552168365E+01 -.69030894879E+01
 -.66387875073E+01 -.62499756667E+01 -.56966447855E+01 -.50766018972E+01 -.45901685112E+01
 -.32280675738E+01 -.30471087610E+01 -.29501040015E+01 -.27442118762E+01 -.26155588212E+01
 -.25808039918E+01 -.25325040643E+01 -.25462961461E+01 -.25574563652E+01 -.25745928122E+01
 -.25820003152E+01 -.25759333002E+01 -.25994614964E+01 -.26513694689E+01 -.27349700931E+01
 -.28692599385E+01 -.30517256036E+01 -.32889946755E+01 -.35669962152E+01 -.38786776467E+01
 -.41943962970E+01 -.44917428923E+01 -.47747203220E+01 -.49536808492E+01 -.50237222359E+01
 -.49978393489E+01 -.48739579512E+01 -.47086906839E+01 -.44513149653E+01 -.42096649693E+01
 -.39678599338E+01 -.35859607629E+01 -.30883759462E+01 -.30466737956E+01 -.30338496155E+01
 -.32050385058E+01 -.33702480338E+01 -.34780516486E+01 -.35998166724E+01 -.36432807239E+01
 -.36482918466E+01 -.36040272778E+01 -.35311989271E+01 -.34513199403E+01 -.33330635372E+01
 -.32145081284E+01 -.31187506257E+01 -.30517256036E+01 -.30304493113E+01 -.30517256036E+01
 -.31187506257E+01 -.32145081284E+01 -.33330635372E+01 -.34513199403E+01 -.35311989271E+01
 -.36040272778E+01 -.36482918466E+01 -.36432807239E+01 -.35998166724E+01 -.34780516486E+01
 -.33702480338E+01 -.32050385058E+01 -.30338496155E+01 -.30466737956E+01 -.32280675738E+01
 -.35859607629E+01 -.39678599338E+01 -.42096649693E+01 -.44513149653E+01 -.47086906839E+01
 -.48739579512E+01 -.49978393489E+01 -.50237222359E+01 -.49536808492E+01 -.47747203220E+01
 -.44917428923E+01 -.41943962970E+01 -.38786776467E+01 -.35669962152E+01 -.32889946755E+01
 -.30517256036E+01 -.28692599385E+01 -.27349700931E+01 -.26513694689E+01 -.25994614964E+01
 -.25759333002E+01 -.25820003152E+01 -.25745928122E+01 -.25574563652E+01 -.25462961461E+01
 -.25325040643E+01 -.25808039918E+01 -.26155588212E+01 -.27442118762E+01 -.29501040015E+01
 -.30471087610E+01 -.41410833243E+01 -.45901685112E+01 -.50766018972E+01 -.56966447855E+01
 -.62499756667E+01 -.66387875073E+01 -.69030894879E+01 -.69552168365E+01 -.68323851249E+01
 -.65450894499E+01 -.61583065390E+01 -.57242090521E+01 -.51827068131E+01 -.46217251953E+01
 -.40771061876E+01 -.35669962152E+01 -.31187506257E+01 -.27349700931E+01 -.24269643449E+01
 -.21831535848E+01 -.20093003563E+01 -.18878366256E+01 -.18077175984E+01 -.17897465526E+01
 -.18276637071E+01 -.19055793480E+01 -.20485052845E+01 -.21972702654E+01 -.24576942782E+01
 -.27302415239E+01 -.30348840624E+01 -.35850862646E+01 -.53535315953E+01 -.63258108363E+01
 -.72386683917E+01 -.78806162271E+01 -.83346545094E+01 -.86510990210E+01 -.87861685096E+01
 -.88331913017E+01 -.87454504013E+01 -.84778695308E+01 -.79093144111E+01 -.70822102250E+01
 -.62675416475E+01 -.54327385685E+01 -.46217251953E+01 -.38786776467E+01 -.32145081284E+01
 -.26513694689E+01 -.21831535848E+01 -.18212053669E+01 -.15478548080E+01 -.13741791670E+01
 -.12943105444E+01 -.12908740999E+01 -.13633335854E+01 -.15358153932E+01 -.17802092532E+01
 -.21791892602E+01 -.26193403476E+01 -.32185633390E+01 -.39656545630E+01 -.45920328851E+01
 -.75384766123E+01 -.84281854909E+01 -.91023190508E+01 -.96839227941E+01 -.10133777666E+02
 -.10406798111E+02 -.10509439523E+02 -.10329794178E+02 -.99756101929E+01 -.95683826520E+01
 -.92335911862E+01 -.85977360178E+01 -.74251059265E+01 -.62675416475E+01 -.51827068131E+01
 -.41943962970E+01 -.33330635372E+01 -.25994614964E+01 -.20093003563E+01 -.15478548080E+01
 -.12301270605E+01 -.10330036938E+01 -.96499309034E+00 -.10304741941E+01 -.12387143341E+01
 -.15606249199E+01 -.20463200031E+01 -.25991510402E+01 -.33625802885E+01 -.41969520650E+01
 -.50803719165E+01 -.63221218066E+01 -.93904924609E+01 -.10341389077E+02 -.11352755855E+02
 -.12468537219E+02 -.13497380730E+02 -.14163505370E+02 -.14191193536E+02 -.13650582615E+02
 -.12620571068E+02 -.11337127382E+02 -.10082012146E+02 -.94282084566E+01 -.85977360178E+01
 -.70822102250E+01 -.57242090521E+01 -.44917428923E+01 -.34513199403E+01 -.25759333002E+01
 -.18878366256E+01 -.13741791670E+01 -.10330036938E+01 -.86708850235E+00 -.87143483925E+00
 -.10376004383E+01 -.13616006296E+01 -.18801531836E+01 -.25379200046E+01 -.34579836729E+01
 -.44644464307E+01 -.57072385620E+01 -.72341026721E+01 -.84349241253E+01 -.11876889941E+02
 -.14152220405E+02 -.16866881154E+02 -.19299297484E+02 -.20932778770E+02 -.21443434037E+02
 -.20826259500E+02 -.19132831387E+02 -.16796205320E+02 -.14351698638E+02 -.12021369046E+02
 -.10082012146E+02 -.92335911862E+01 -.79093144111E+01 -.61583065390E+01 -.47747203220E+01
 -.35311989271E+01 -.25820003152E+01 -.18077175984E+01 -.12943105444E+01 -.96499309034E+00
 -.87143483925E+00 -.96002434869E+00 -.12899627313E+01 -.18253377591E+01 -.25778538734E+01
 -.35850683622E+01 -.47376161096E+01 -.62231339920E+01 -.78787431117E+01 -.90973559421E+01
 -.10329017002E+02 -.18303938620E+02 -.22782494157E+02 -.27085822206E+02 -.30504825185E+02
 -.32444327896E+02 -.32487622603E+02 -.30662391570E+02 -.27214392139E+02 -.22717685277E+02
 -.18069162323E+02 -.14351698638E+02 -.11337127382E+02 -.95683826520E+01 -.84778695308E+01
 -.65450894499E+01 -.49536808492E+01 -.36040272778E+01 -.25745928122E+01 -.17897465526E+01
 -.12908740999E+01 -.10304741941E+01 -.10376004383E+01 -.12899627313E+01 -.17962593531E+01
 -.25546638542E+01 -.36131085858E+01 -.48929495312E+01 -.66021579750E+01 -.83751172530E+01
 -.96762455542E+01 -.11374690671E+02 -.14175710283E+02 -.29656747722E+02 -.36392881881E+02
 -.41815568619E+02 -.45177568393E+02 -.46350257711E+02 -.45081677843E+02 -.41662249712E+02
 -.36366838761E+02 -.29827226199E+02 -.22717685277E+02 -.16796205320E+02 -.12620571068E+02
 -.99756101929E+01 -.87454504013E+01 -.68323851249E+01 -.50237222359E+01 -.36482918466E+01
 -.25574563652E+01 -.18276637071E+01 -.13633335854E+01 -.12387143341E+01 -.13616006296E+01
 -.18253377591E+01 -.25546638542E+01 -.36658974248E+01 -.50148596279E+01 -.68909180118E+01
 -.86846832089E+01 -.10099961486E+02 -.12483814489E+02 -.16855474108E+02 -.22773275419E+02
 -.45247305002E+02 -.52634099536E+02 -.58093901729E+02 -.60997098398E+02 -.61078758971E+02
 -.58214943497E+02 -.52698233607E+02 -.45129398662E+02 -.36366838761E+02 -.27214392139E+02
 -.19132831387E+02 -.13650582615E+02 -.10329794178E+02 -.88331913017E+01 -.69552168365E+01
 -.49978393489E+01 -.36432807239E+01 -.25462961461E+01 -.19055793480E+01 -.15358153932E+01
 -.15606249199E+01 -.18801531836E+01 -.25778538734E+01 -.36131085858E+01 -.50148596279E+01
 -.69266863607E+01 -.88209345043E+01 -.10359756288E+02 -.13562220674E+02 -.19230940928E+02
 -.27151719765E+02 -.36372937791E+02 -.62480965767E+02 -.70306952098E+02 -.75206162803E+02
 -.76814283216E+02 -.75124130151E+02 -.70237189594E+02 -.62495407048E+02 -.52698233607E+02
 -.41662249712E+02 -.30662391570E+02 -.20826259500E+02 -.14191193536E+02 -.10509439523E+02
 -.87861685096E+01 -.69030894879E+01 -.48739579512E+01 -.35998166724E+01 -.25325040643E+01
 -.20485052845E+01 -.17802092532E+01 -.20463200031E+01 -.25379200046E+01 -.35850683622E+01
 -.48929495312E+01 -.68909180118E+01 -.88209345043E+01 -.10513917817E+02 -.14172775903E+02
 -.20870470456E+02 -.30559963082E+02 -.41724875707E+02 -.52648670482E+02 -.80227926886E+02
 -.87174888301E+02 -.90757461887E+02 -.90790962347E+02 -.87187869491E+02 -.80241076680E+02
 -.70237189594E+02 -.58214943497E+02 -.45081677843E+02 -.32487622603E+02 -.21443434037E+02
 -.14163505370E+02 -.10406798111E+02 -.86510990210E+01 -.66387875073E+01 -.47086906839E+01
 -.34780516486E+01 -.25808039918E+01 -.21972702654E+01 -.21791892602E+01 -.25991510402E+01
 -.34579836729E+01 -.47376161096E+01 -.66021579750E+01 -.86846832089E+01 -.10359756288E+02
 -.14172775903E+02 -.21425580242E+02 -.32455467929E+02 -.45145444228E+02 -.58139059932E+02
 -.70260952613E+02 -.96309506218E+02 -.10200758224E+03 -.10392648052E+03 -.10197417920E+03
 -.96340096624E+02 -.87187869491E+02 -.75124130151E+02 -.61078758971E+02 -.46350257711E+02
 -.32444327896E+02 -.20932778770E+02 -.13497380730E+02 -.10133777666E+02 -.83346545094E+01
 -.62499756667E+01 -.44513149653E+01 -.33702480338E+01 -.26155588212E+01 -.24576942782E+01
 -.26193403476E+01 -.33625802885E+01 -.44644464307E+01 -.62231339920E+01 -.83751172530E+01
 -.10099961486E+02 -.13562220674E+02 -.20870470456E+02 -.32455467929E+02 -.46322858099E+02
 -.61024879334E+02 -.75152033757E+02 -.87171557682E+02 -.10968060011E+03 -.11362732949E+03
 -.11358882008E+03 -.10970366738E+03 -.10197417920E+03 -.90790962347E+02 -.76814283216E+02
 -.60997098398E+02 -.45177568393E+02 -.30504825185E+02 -.19299297484E+02 -.12468537219E+02
 -.96839227941E+01 -.78806162271E+01 -.56966447855E+01 -.42096649693E+01 -.32050385058E+01
 -.27442118762E+01 -.27302415239E+01 -.32185633390E+01 -.41969520650E+01 -.57072385620E+01
 -.78787431117E+01 -.96762455542E+01 -.12483814489E+02 -.19230940928E+02 -.30559963082E+02
 -.45145444228E+02 -.61024879334E+02 -.76837134119E+02 -.90757293549E+02 -.10201003950E+03
 -.11959970227E+03 -.12158328945E+03 -.11959422193E+03 -.11358882008E+03 -.10392648052E+03
 -.90757461887E+02 -.75206162803E+02 -.58093901729E+02 -.41815568619E+02 -.27085822206E+02
 -.16866881154E+02 -.11352755855E+02 -.91023190508E+01 -.72386683917E+01 -.50766018972E+01
 -.39678599338E+01 -.30338496155E+01 -.29501040015E+01 -.30348840624E+01 -.39656545630E+01
 -.50803719165E+01 -.72341026721E+01 -.90973559421E+01 -.11374690671E+02 -.16855474108E+02
 -.27151719765E+02 -.41724875707E+02 -.58139059932E+02 -.75152033757E+02 -.90757293549E+02
 -.10392403866E+03 -.11357836854E+03 -.12561590449E+03 -.12556916689E+03 -.12158328945E+03
 -.11362732949E+03 -.10200758224E+03 -.87174888301E+02 -.70306952098E+02 -.52634099536E+02
 -.36392881881E+02 -.22782494157E+02 -.14152220405E+02 -.10341389077E+02 -.84281854909E+01
 -.63258108363E+01 -.45901685112E+01 -.35859607629E+01 -.30466737956E+01 -.30471087610E+01
 -.35850862646E+01 -.45920328851E+01 -.63221218066E+01 -.84349241253E+01 -.10329017002E+02
 -.14175710283E+02 -.22773275419E+02 -.36372937791E+02 -.52648670482E+02 -.70260952613E+02
 -.87171557682E+02 -.10201003950E+03 -.11357836854E+03 -.12159747804E+03 -.12561590449E+03
 -.12159747804E+03 -.11357836854E+03 -.10201003950E+03 -.87171557682E+02 -.70260952613E+02
 -.52648670482E+02 -.36372937791E+02 -.22773275419E+02 -.14175710283E+02 -.10329017002E+02
 -.84349241253E+01 -.63221218066E+01 -.45920328851E+01 -.35850862646E+01 -.30471087610E+01
 -.30466737956E+01 -.35859607629E+01 -.45901685112E+01 -.63258108363E+01 -.84281854909E+01
 -.10341389077E+02 -.14152220405E+02 -.22782494157E+02 -.36392881881E+02 -.52634099536E+02
 -.70306952098E+02 -.87174888301E+02 -.10200758224E+03 -.11362732949E+03 -.12158328945E+03
 -.12556916689E+03 -.12159747804E+03 -.11555139086E+03 -.10586143574E+03 -.92613701835E+02
 -.76816568085E+02 -.59606834858E+02 -.42854893058E+02 -.27979753298E+02 -.17281986132E+02
 -.11532287815E+02 -.91951037838E+01 -.73547489492E+01 -.51627187457E+01 -.40368062401E+01
 -.30963834166E+01 -.30064379499E+01 -.30974130766E+01 -.40344415510E+01 -.51672522694E+01
 -.73478612243E+01 -.91971612467E+01 -.11527615802E+02 -.17364581447E+02 -.27872838567E+02
 -.42936759385E+02 -.59476200850E+02 -.76852765326E+02 -.92561163466E+02 -.10583595564E+03
 -.11553622023E+03 -.12157508761E+03 -.12359839124E+03 -.11357836854E+03 -.10586143574E+03
 -.94446973113E+02 -.80192773953E+02 -.64060100251E+02 -.47539023330E+02 -.32469878511E+02
 -.20316575506E+02 -.13032781828E+02 -.98769837521E+01 -.80854201851E+01 -.59046177766E+01
 -.43403987626E+01 -.33428197052E+01 -.28445182967E+01 -.28508474916E+01 -.33377045060E+01
 -.43427253747E+01 -.59069575934E+01 -.80761208636E+01 -.99050353715E+01 -.12971392593E+02
 -.20383919524E+02 -.32425639978E+02 -.47560513960E+02 -.64077131352E+02 -.80160632876E+02
 -.94494530822E+02 -.10579988431E+03 -.11366042982E+03 -.11760010957E+03 -.11758064256E+03
 -.10201003950E+03 -.92613701835E+02 -.80192773953E+02 -.65595345377E+02 -.50011933282E+02
 -.35431479793E+02 -.22719330896E+02 -.14546585698E+02 -.10462784593E+02 -.86112777209E+01
 -.65836512708E+01 -.46583403512E+01 -.35826311441E+01 -.27487034798E+01 -.26468285330E+01
 -.27414552151E+01 -.35978566512E+01 -.46346715705E+01 -.66120142857E+01 -.85759376628E+01
 -.10536921768E+02 -.14463767609E+02 -.22775028246E+02 -.35391068507E+02 -.50029160044E+02
 -.65583973016E+02 -.80172311884E+02 -.92644353074E+02 -.10196426347E+03 -.10773909948E+03
 -.10967097604E+03 -.10775463120E+03 -.87171557682E+02 -.76816568085E+02 -.64060100251E+02
 -.50011933282E+02 -.36472799651E+02 -.24045974170E+02 -.15663120283E+02 -.10958928377E+02
 -.90218203768E+01 -.70599089439E+01 -.50362628055E+01 -.37103028070E+01 -.28101465844E+01
 -.23643819363E+01 -.23939616188E+01 -.27788595564E+01 -.37444469756E+01 -.50011736454E+01
 -.70983549599E+01 -.89686867054E+01 -.11006771440E+02 -.15616321025E+02 -.24025536266E+02
 -.36465676475E+02 -.49986947352E+02 -.64128862273E+02 -.76762762926E+02 -.87259705940E+02
 -.94447333853E+02 -.98249919643E+02 -.98198572621E+02 -.94463850891E+02 -.70260952613E+02
 -.59606834858E+02 -.47539023330E+02 -.35431479793E+02 -.24045974170E+02 -.16030641940E+02
 -.11294099120E+02 -.91853801652E+01 -.74285648212E+01 -.52691263589E+01 -.39158050965E+01
 -.27774236861E+01 -.22733161055E+01 -.19717685292E+01 -.22802489977E+01 -.27640297902E+01
 -.39320593819E+01 -.52463311744E+01 -.74763083860E+01 -.91520498895E+01 -.11320339747E+02
 -.16009973421E+02 -.24074248224E+02 -.35411968752E+02 -.47482177553E+02 -.59597790029E+02
 -.70195517746E+02 -.78487347143E+02 -.83594329810E+02 -.85426623808E+02 -.83620815683E+02
 -.78532046639E+02 -.52648670482E+02 -.42854893058E+02 -.32469878511E+02 -.22719330896E+02
 -.15663120283E+02 -.11294099120E+02 -.92738144971E+01 -.75953613620E+01 -.54937848255E+01
 -.39942801608E+01 -.28462217939E+01 -.21143082660E+01 -.17723155120E+01 -.17400213034E+01
 -.21467757431E+01 -.28170499860E+01 -.40234269810E+01 -.54469812922E+01 -.76334959483E+01
 -.92349129203E+01 -.11308438709E+02 -.15621612087E+02 -.22673334593E+02 -.32553346370E+02
 -.42797353926E+02 -.52755772486E+02 -.61084215637E+02 -.67166445919E+02 -.70293853945E+02
 -.70316273847E+02 -.67104998439E+02 -.61008088989E+02 -.36372937791E+02 -.27979753298E+02
 -.20316575506E+02 -.14546585698E+02 -.10958928377E+02 -.91853801652E+01 -.75953613620E+01
 -.55284351557E+01 -.40541017075E+01 -.28486669911E+01 -.20774830642E+01 -.15589580835E+01
 -.14323465366E+01 -.15551937842E+01 -.20805457642E+01 -.28430750278E+01 -.40773780634E+01
 -.55199266240E+01 -.76169714396E+01 -.91991652888E+01 -.10940777474E+02 -.14633947556E+02
 -.20190426866E+02 -.28065071033E+02 -.36324169494E+02 -.43909055858E+02 -.50002567820E+02
 -.53954805492E+02 -.55266925254E+02 -.53983388042E+02 -.50039609401E+02 -.44040443288E+02
 -.22773275419E+02 -.17281986132E+02 -.13032781828E+02 -.10462784593E+02 -.90218203768E+01
 -.74285648212E+01 -.54937848255E+01 -.40541017075E+01 -.28941271626E+01 -.20231279354E+01
 -.14734685138E+01 -.11745557302E+01 -.12057182570E+01 -.14477081736E+01 -.20477624527E+01
 -.28558159837E+01 -.40687859177E+01 -.54738784315E+01 -.74082258648E+01 -.90582564680E+01
 -.10343391235E+02 -.13185300855E+02 -.17204853531E+02 -.22737584836E+02 -.28968320226E+02
 -.34431968853E+02 -.38504769701E+02 -.40630099422E+02 -.40678524376E+02 -.38488433617E+02
 -.34378513388E+02 -.28764560850E+02 -.14175710283E+02 -.11532287815E+02 -.98769837521E+01
 -.86112777209E+01 -.70599089439E+01 -.52691263589E+01 -.39942801608E+01 -.28486669911E+01
 -.20231279354E+01 -.14212049441E+01 -.10843779335E+01 -.95696433072E+00 -.10770764470E+01
 -.14296806101E+01 -.20275975772E+01 -.28719319289E+01 -.39762001784E+01 -.53394076143E+01
 -.69890440820E+01 -.87775231897E+01 -.97242126451E+01 -.11561455407E+02 -.14354718360E+02
 -.17596414257E+02 -.21402691992E+02 -.24808402615E+02 -.27169530563E+02 -.27938596936E+02
 -.27093825734E+02 -.24833391554E+02 -.21546967614E+02 -.17782322333E+02 -.10329017002E+02
 -.91951037838E+01 -.80854201851E+01 -.65836512708E+01 -.50362628055E+01 -.39158050965E+01
 -.28462217939E+01 -.20774830642E+01 -.14734685138E+01 -.10843779335E+01 -.87364195166E+00
 -.88663076875E+00 -.10725660191E+01 -.14714377886E+01 -.20499014357E+01 -.28618171364E+01
 -.38444739694E+01 -.50879064415E+01 -.64619241049E+01 -.81497513793E+01 -.93102930926E+01
 -.10074821935E+02 -.11778482518E+02 -.13728306444E+02 -.15627636859E+02 -.17211058939E+02
 -.18181354750E+02 -.18207530985E+02 -.17292140814E+02 -.15554775591E+02 -.13519347393E+02
 -.11691600549E+02 -.84349241253E+01 -.73547489492E+01 -.59046177766E+01 -.46583403512E+01
 -.37103028070E+01 -.27774236861E+01 -.21143082660E+01 -.15589580835E+01 -.11745557302E+01
 -.95696433072E+00 -.88663076875E+00 -.96083074798E+00 -.11862120247E+01 -.15767187541E+01
 -.21192942887E+01 -.28279052846E+01 -.36994920413E+01 -.47246626180E+01 -.59089557292E+01
 -.71978862352E+01 -.85995522240E+01 -.93605583313E+01 -.98668259666E+01 -.10742506417E+02
 -.11644517767E+02 -.12273936782E+02 -.12446880960E+02 -.12219436442E+02 -.11586657435E+02
 -.10882688474E+02 -.10086733901E+02 -.92968221615E+01 -.63221218066E+01 -.51627187457E+01
 -.43403987626E+01 -.35826311441E+01 -.28101465844E+01 -.22733161055E+01 -.17723155120E+01
 -.14323465366E+01 -.12057182570E+01 -.10770764470E+01 -.10725660191E+01 -.11862120247E+01
 -.14195719318E+01 -.17557516957E+01 -.22264391239E+01 -.28075735878E+01 -.35208754344E+01
 -.43414084592E+01 -.52691323195E+01 -.62688552361E+01 -.73018588264E+01 -.83660055491E+01
 -.89989290162E+01 -.92907039053E+01 -.94967542954E+01 -.96573725761E+01 -.96930362695E+01
 -.95492142850E+01 -.92936917875E+01 -.88065826319E+01 -.82402916279E+01 -.74261237329E+01
 -.45920328851E+01 -.40368062401E+01 -.33428197052E+01 -.27487034798E+01 -.23643819363E+01
 -.19717685292E+01 -.17400213034E+01 -.15551937842E+01 -.14477081736E+01 -.14296806101E+01
 -.14714377886E+01 -.15767187541E+01 -.17557516957E+01 -.20274067322E+01 -.23713567615E+01
 -.28150284228E+01 -.33371400099E+01 -.39491678478E+01 -.46218088737E+01 -.53424025057E+01
 -.60728142890E+01 -.67384603295E+01 -.74178249725E+01 -.79225966913E+01 -.81963206837E+01
 -.82514360565E+01 -.81493237777E+01 -.79069307882E+01 -.74649658355E+01 -.69137387816E+01
 -.60997245744E+01 -.52593706889E+01 -.35850862646E+01 -.30963834166E+01 -.28445182967E+01
 -.26468285330E+01 -.23939616188E+01 -.22802489977E+01 -.21467757431E+01 -.20805457642E+01
 -.20477624527E+01 -.20275975772E+01 -.20499014357E+01 -.21192942887E+01 -.22264391239E+01
 -.23713567615E+01 -.25828372627E+01 -.28460659035E+01 -.31804008372E+01 -.35666396895E+01
 -.40047548864E+01 -.44658174732E+01 -.49252815744E+01 -.53734179208E+01 -.56918506168E+01
 -.59387844667E+01 -.60751584667E+01 -.60965153117E+01 -.59632366773E+01 -.56741215079E+01
 -.53069096550E+01 -.48164250836E+01 -.44490886045E+01 -.40739336969E+01 -.30471087610E+01
 -.30064379499E+01 -.28508474916E+01 -.27414552151E+01 -.27788595564E+01 -.27640297902E+01
 -.28170499860E+01 -.28430750278E+01 -.28558159837E+01 -.28719319289E+01 -.28618171364E+01
 -.28279052846E+01 -.28075735878E+01 -.28150284228E+01 -.28460659035E+01 -.29280500799E+01
 -.30512270170E+01 -.32262885107E+01 -.34359094370E+01 -.36717518427E+01 -.39123695992E+01
 -.41158486178E+01 -.43244386173E+01 -.44450098369E+01 -.44901904894E+01 -.44350791433E+01
 -.43171539701E+01 -.41632063318E+01 -.39408808242E+01 -.37671071886E+01 -.34451259242E+01
 -.31602234130E+01 -.30466737956E+01 -.30974130766E+01 -.33377045060E+01 -.35978566512E+01
 -.37444469756E+01 -.39320593819E+01 -.40234269810E+01 -.40773780634E+01 -.40687859177E+01
 -.39762001784E+01 -.38444739694E+01 -.36994920413E+01 -.35208754344E+01 -.33371400099E+01
 -.31804008372E+01 -.30512270170E+01 -.29708191863E+01 -.29324539947E+01 -.29388125530E+01
 -.29761917842E+01 -.30308144113E+01 -.31040935244E+01 -.31266365480E+01 -.31534681798E+01
 -.31466458823E+01 -.31314108747E+01 -.30845741028E+01 -.30031946093E+01 -.29571645053E+01
 -.28509440714E+01 -.29317385274E+01 -.30334704865E+01 -.35859607629E+01 -.40344415510E+01
 -.43427253747E+01 -.46346715705E+01 -.50011736454E+01 -.52463311744E+01 -.54469812922E+01
 -.55199266240E+01 -.54738784315E+01 -.53394076143E+01 -.50879064415E+01 -.47246626180E+01
 -.43414084592E+01 -.39491678478E+01 -.35666396895E+01 -.32262885107E+01 -.29324539947E+01
 -.26979378748E+01 -.25180514156E+01 -.23892580897E+01 -.23049880406E+01 -.22404863313E+01
 -.22364027475E+01 -.22252134405E+01 -.22411251343E+01 -.22585516781E+01 -.23092493794E+01
 -.24167509833E+01 -.25279120215E+01 -.27813635302E+01 -.29278191084E+01 -.31602234130E+01
 -.45901685112E+01 -.51672522694E+01 -.59069575934E+01 -.66120142857E+01 -.70983549599E+01
 -.74763083860E+01 -.76334959483E+01 -.76169714396E+01 -.74082258648E+01 -.69890440820E+01
 -.64619241049E+01 -.59089557292E+01 -.52691323195E+01 -.46218088737E+01 -.40047548864E+01
 -.34359094370E+01 -.29388125530E+01 -.25180514156E+01 -.21775127494E+01 -.19148755720E+01
 -.17220335520E+01 -.16086215195E+01 -.15258720813E+01 -.15307900490E+01 -.15843507931E+01
 -.17171770966E+01 -.19105193068E+01 -.21513068938E+01 -.25170311647E+01 -.28547810559E+01