 vasp.5.4.1 24Jun15 (build Mar  6 2017 20:45:23) complex                         
 executed on           IFC91_ompi date 2017.10.28  19:27:53
 running on    1 total cores
 distrk:  each k-point on    1 cores,    1 groups
 distr:  one band on NCORES_PER_BAND=   1 cores,    1 groups


--------------------------------------------------------------------------------------------------------


 INCAR:
 POTCAR:    PAW_PBE Al 04Jan2001                  
 POTCAR:    PAW_PBE Al 04Jan2001                  
   VRHFIN =Al: s2p1                                                             
   LEXCH  = PE                                                                  
   EATOM  =    53.5387 eV,    3.9350 Ry                                         
                                                                                
   TITEL  = PAW_PBE Al 04Jan2001                                                
   LULTRA =        F    use ultrasoft PP ?                                      
   IUNSCR =        1    unscreen: 0-lin 1-nonlin 2-no                           
   RPACOR =    1.500    partial core radius                                     
   POMASS =   26.981; ZVAL   =    3.000    mass and valenz                      
   RCORE  =    1.900    outmost cutoff radius                                   
   RWIGS  =    2.650; RWIGS  =    1.402    wigner-seitz radius (au A)           
   ENMAX  =  240.300; ENMIN  =  180.225 eV                                      
   ICORE  =        2    local potential                                         
   LCOR   =        T    correct aug charges                                     
   LPAW   =        T    paw PP                                                  
   EAUG   =  291.052                                                            
   DEXC   =    0.000                                                            
   RMAX   =    1.939    core radius for proj-oper                               
   RAUG   =    1.300    factor for augmentation sphere                          
   RDEP   =    1.966    radius for radial grids                                 
   RDEPT  =    1.856    core radius for aug-charge                              
                                                                                
   Atomic configuration                                                         
    6 entries                                                                   
     n  l   j            E        occ.                                          
     1  0  0.50     -1511.1048   2.0000                                         
     2  0  0.50      -108.1629   2.0000                                         
     2  1  1.50       -69.6402   6.0000                                         
     3  0  0.50        -7.7528   2.0000                                         
     3  1  1.50        -2.7121   1.0000                                         
     3  2  2.50        -2.7212   0.0000                                         
   Description                                                                  
     l       E           TYP  RCUT    TYP  RCUT                                 
     0     -7.7528455     23  1.900                                             
     0     -3.3096929     23  1.900                                             
     1     -2.7120682     23  1.900                                             
     1     13.6058260     23  1.900                                             
     2     -2.7211652      7  1.900                                             
  local pseudopotential read in
  partial core-charges read in
  partial kinetic energy density read in
  atomic valenz-charges read in
  non local Contribution for L=           0  read in
    real space projection operators read in
  non local Contribution for L=           0  read in
    real space projection operators read in
  non local Contribution for L=           1  read in
    real space projection operators read in
  non local Contribution for L=           1  read in
    real space projection operators read in
    PAW grid and wavefunctions read in

   number of l-projection  operators is LMAX  =           4
   number of lm-projection operators is LMMAX =           8

  PAW_PBE Al 04Jan2001                  :
 energy of atom  1       EATOM=  -53.5387
 kinetic energy error for atom=    0.0011 (will be added to EATOM!!)


 POSCAR: Al_mp-134_primitive.cif                 
  positions in direct lattice
  velocities in cartesian coordinates
 exchange correlation table for  LEXCH =        8
   RHO(1)=    0.500       N(1)  =     2000
   RHO(2)=  100.500       N(2)  =     4000



--------------------------------------------------------------------------------------------------------


 ion  position               nearest neighbor table
   1  0.000  0.000  0.000-

  LATTYP: Found a face centered cubic cell.
 ALAT       =     4.0380123729
  
  Lattice vectors:
  
 A1 = (  -2.0190061864,  -0.0000000000,   2.0190061864)
 A2 = (   0.0000000000,   2.0190061864,   2.0190061864)
 A3 = (  -2.0190061864,   2.0190061864,  -0.0000000000)


Analysis of symmetry for initial positions (statically):
=====================================================================
 Subroutine PRICEL returns:
 Original cell was already a primitive cell.
 

 Routine SETGRP: Setting up the symmetry group for a 
 face centered cubic supercell.


 Subroutine GETGRP returns: Found 48 space group operations
 (whereof 48 operations were pure point group operations)
 out of a pool of 48 trial point group operations.


The static configuration has the point symmetry O_h .


Analysis of symmetry for dynamics (positions and initial velocities):
=====================================================================
 Subroutine PRICEL returns:
 Original cell was already a primitive cell.
 

 Routine SETGRP: Setting up the symmetry group for a 
 face centered cubic supercell.


 Subroutine GETGRP returns: Found 48 space group operations
 (whereof 48 operations were pure point group operations)
 out of a pool of 48 trial point group operations.


The dynamic configuration has the point symmetry O_h .


 irot  :   1
 --------------------------------------------------------------------
 isymop:   1   0   0
           0   1   0
           0   0   1

 gtrans:     0.0000000     0.0000000     0.0000000

 ptrans:     0.0000000     0.0000000     0.0000000
 rotmap:
 (   1->   1) 


 irot  :   2
 --------------------------------------------------------------------
 isymop:  -1   0   0
           0  -1   0
           0   0  -1

 gtrans:     0.0000000     0.0000000     0.0000000

 ptrans:     0.0000000     0.0000000     0.0000000
 rotmap:
 (   1->   1) 


 irot  :   3
 --------------------------------------------------------------------
 isymop:   0   0   1
           1   0   0
           0   1   0

 gtrans:     0.0000000     0.0000000     0.0000000

 ptrans:     0.0000000     0.0000000     0.0000000
 rotmap:
 (   1->   1) 


 irot  :   4
 --------------------------------------------------------------------
 isymop:   0   0  -1
          -1   0   0
           0  -1   0

 gtrans:     0.0000000     0.0000000     0.0000000

 ptrans:     0.0000000     0.0000000     0.0000000
 rotmap:
 (   1->   1) 


 irot  :   5
 --------------------------------------------------------------------
 isymop:   0   1   0
           0   0   1
           1   0   0

 gtrans:     0.0000000     0.0000000     0.0000000

 ptrans:     0.0000000     0.0000000     0.0000000
 rotmap:
 (   1->   1) 


 irot  :   6
 --------------------------------------------------------------------
 isymop:   0  -1   0
           0   0  -1
          -1   0   0

 gtrans:     0.0000000     0.0000000     0.0000000

 ptrans:     0.0000000     0.0000000     0.0000000
 rotmap:
 (   1->   1) 


 irot  :   7
 --------------------------------------------------------------------
 isymop:   1   1   1
           0   0  -1
          -1   0   0

 gtrans:     0.0000000     0.0000000     0.0000000

 ptrans:     0.0000000     0.0000000     0.0000000
 rotmap:
 (   1->   1) 


 irot  :   8
 --------------------------------------------------------------------
 isymop:  -1  -1  -1
           0   0   1
           1   0   0

 gtrans:     0.0000000     0.0000000     0.0000000

 ptrans:     0.0000000     0.0000000     0.0000000
 rotmap:
 (   1->   1) 


 irot  :   9
 --------------------------------------------------------------------
 isymop:   1   1   1
           0  -1   0
           0   0  -1

 gtrans:     0.0000000     0.0000000     0.0000000

 ptrans:     0.0000000     0.0000000     0.0000000
 rotmap:
 (   1->   1) 


 irot  :  10
 --------------------------------------------------------------------
 isymop:  -1  -1  -1
           0   1   0
           0   0   1

 gtrans:     0.0000000     0.0000000     0.0000000

 ptrans:     0.0000000     0.0000000     0.0000000
 rotmap:
 (   1->   1) 


 irot  :  11
 --------------------------------------------------------------------
 isymop:   1   1   1
          -1   0   0
           0  -1   0

 gtrans:     0.0000000     0.0000000     0.0000000

 ptrans:     0.0000000     0.0000000     0.0000000
 rotmap:
 (   1->   1) 


 irot  :  12
 --------------------------------------------------------------------
 isymop:  -1  -1  -1
           1   0   0
           0   1   0

 gtrans:     0.0000000     0.0000000     0.0000000

 ptrans:     0.0000000     0.0000000     0.0000000
 rotmap:
 (   1->   1) 


 irot  :  13
 --------------------------------------------------------------------
 isymop:   0   1   0
           1   0   0
          -1  -1  -1

 gtrans:     0.0000000     0.0000000     0.0000000

 ptrans:     0.0000000     0.0000000     0.0000000
 rotmap:
 (   1->   1) 


 irot  :  14
 --------------------------------------------------------------------
 isymop:   0  -1   0
          -1   0   0
           1   1   1

 gtrans:     0.0000000     0.0000000     0.0000000

 ptrans:     0.0000000     0.0000000     0.0000000
 rotmap:
 (   1->   1) 


 irot  :  15
 --------------------------------------------------------------------
 isymop:   1   0   0
           0   0   1
          -1  -1  -1

 gtrans:     0.0000000     0.0000000     0.0000000

 ptrans:     0.0000000     0.0000000     0.0000000
 rotmap:
 (   1->   1) 


 irot  :  16
 --------------------------------------------------------------------
 isymop:  -1   0   0
           0   0  -1
           1   1   1

 gtrans:     0.0000000     0.0000000     0.0000000

 ptrans:     0.0000000     0.0000000     0.0000000
 rotmap:
 (   1->   1) 


 irot  :  17
 --------------------------------------------------------------------
 isymop:   0   0   1
           0   1   0
          -1  -1  -1

 gtrans:     0.0000000     0.0000000     0.0000000

 ptrans:     0.0000000     0.0000000     0.0000000
 rotmap:
 (   1->   1) 


 irot  :  18
 --------------------------------------------------------------------
 isymop:   0   0  -1
           0  -1   0
           1   1   1

 gtrans:     0.0000000     0.0000000     0.0000000

 ptrans:     0.0000000     0.0000000     0.0000000
 rotmap:
 (   1->   1) 


 irot  :  19
 --------------------------------------------------------------------
 isymop:   0   0  -1
           1   1   1
           0  -1   0

 gtrans:     0.0000000     0.0000000     0.0000000

 ptrans:     0.0000000     0.0000000     0.0000000
 rotmap:
 (   1->   1) 


 irot  :  20
 --------------------------------------------------------------------
 isymop:   0   0   1
          -1  -1  -1
           0   1   0

 gtrans:     0.0000000     0.0000000     0.0000000

 ptrans:     0.0000000     0.0000000     0.0000000
 rotmap:
 (   1->   1) 


 irot  :  21
 --------------------------------------------------------------------
 isymop:   0  -1   0
           1   1   1
          -1   0   0

 gtrans:     0.0000000     0.0000000     0.0000000

 ptrans:     0.0000000     0.0000000     0.0000000
 rotmap:
 (   1->   1) 


 irot  :  22
 --------------------------------------------------------------------
 isymop:   0   1   0
          -1  -1  -1
           1   0   0

 gtrans:     0.0000000     0.0000000     0.0000000

 ptrans:     0.0000000     0.0000000     0.0000000
 rotmap:
 (   1->   1) 


 irot  :  23
 --------------------------------------------------------------------
 isymop:  -1   0   0
           1   1   1
           0   0  -1

 gtrans:     0.0000000     0.0000000     0.0000000

 ptrans:     0.0000000     0.0000000     0.0000000
 rotmap:
 (   1->   1) 


 irot  :  24
 --------------------------------------------------------------------
 isymop:   1   0   0
          -1  -1  -1
           0   0   1

 gtrans:     0.0000000     0.0000000     0.0000000

 ptrans:     0.0000000     0.0000000     0.0000000
 rotmap:
 (   1->   1) 


 irot  :  25
 --------------------------------------------------------------------
 isymop:  -1  -1  -1
           0   1   0
           1   0   0

 gtrans:     0.0000000     0.0000000     0.0000000

 ptrans:     0.0000000     0.0000000     0.0000000
 rotmap:
 (   1->   1) 


 irot  :  26
 --------------------------------------------------------------------
 isymop:   1   1   1
           0  -1   0
          -1   0   0

 gtrans:     0.0000000     0.0000000     0.0000000

 ptrans:     0.0000000     0.0000000     0.0000000
 rotmap:
 (   1->   1) 


 irot  :  27
 --------------------------------------------------------------------
 isymop:  -1  -1  -1
           1   0   0
           0   0   1

 gtrans:     0.0000000     0.0000000     0.0000000

 ptrans:     0.0000000     0.0000000     0.0000000
 rotmap:
 (   1->   1) 


 irot  :  28
 --------------------------------------------------------------------
 isymop:   1   1   1
          -1   0   0
           0   0  -1

 gtrans:     0.0000000     0.0000000     0.0000000

 ptrans:     0.0000000     0.0000000     0.0000000
 rotmap:
 (   1->   1) 


 irot  :  29
 --------------------------------------------------------------------
 isymop:  -1  -1  -1
           0   0   1
           0   1   0

 gtrans:     0.0000000     0.0000000     0.0000000

 ptrans:     0.0000000     0.0000000     0.0000000
 rotmap:
 (   1->   1) 


 irot  :  30
 --------------------------------------------------------------------
 isymop:   1   1   1
           0   0  -1
           0  -1   0

 gtrans:     0.0000000     0.0000000     0.0000000

 ptrans:     0.0000000     0.0000000     0.0000000
 rotmap:
 (   1->   1) 


 irot  :  31
 --------------------------------------------------------------------
 isymop:   0  -1   0
           0   0  -1
           1   1   1

 gtrans:     0.0000000     0.0000000     0.0000000

 ptrans:     0.0000000     0.0000000     0.0000000
 rotmap:
 (   1->   1) 


 irot  :  32
 --------------------------------------------------------------------
 isymop:   0   1   0
           0   0   1
          -1  -1  -1

 gtrans:     0.0000000     0.0000000     0.0000000

 ptrans:     0.0000000     0.0000000     0.0000000
 rotmap:
 (   1->   1) 


 irot  :  33
 --------------------------------------------------------------------
 isymop:  -1   0   0
           0  -1   0
           1   1   1

 gtrans:     0.0000000     0.0000000     0.0000000

 ptrans:     0.0000000     0.0000000     0.0000000
 rotmap:
 (   1->   1) 


 irot  :  34
 --------------------------------------------------------------------
 isymop:   1   0   0
           0   1   0
          -1  -1  -1

 gtrans:     0.0000000     0.0000000     0.0000000

 ptrans:     0.0000000     0.0000000     0.0000000
 rotmap:
 (   1->   1) 


 irot  :  35
 --------------------------------------------------------------------
 isymop:   0   0  -1
          -1   0   0
           1   1   1

 gtrans:     0.0000000     0.0000000     0.0000000

 ptrans:     0.0000000     0.0000000     0.0000000
 rotmap:
 (   1->   1) 


 irot  :  36
 --------------------------------------------------------------------
 isymop:   0   0   1
           1   0   0
          -1  -1  -1

 gtrans:     0.0000000     0.0000000     0.0000000

 ptrans:     0.0000000     0.0000000     0.0000000
 rotmap:
 (   1->   1) 


 irot  :  37
 --------------------------------------------------------------------
 isymop:   1   0   0
          -1  -1  -1
           0   1   0

 gtrans:     0.0000000     0.0000000     0.0000000

 ptrans:     0.0000000     0.0000000     0.0000000
 rotmap:
 (   1->   1) 


 irot  :  38
 --------------------------------------------------------------------
 isymop:  -1   0   0
           1   1   1
           0  -1   0

 gtrans:     0.0000000     0.0000000     0.0000000

 ptrans:     0.0000000     0.0000000     0.0000000
 rotmap:
 (   1->   1) 


 irot  :  39
 --------------------------------------------------------------------
 isymop:   0   0   1
          -1  -1  -1
           1   0   0

 gtrans:     0.0000000     0.0000000     0.0000000

 ptrans:     0.0000000     0.0000000     0.0000000
 rotmap:
 (   1->   1) 


 irot  :  40
 --------------------------------------------------------------------
 isymop:   0   0  -1
           1   1   1
          -1   0   0

 gtrans:     0.0000000     0.0000000     0.0000000

 ptrans:     0.0000000     0.0000000     0.0000000
 rotmap:
 (   1->   1) 


 irot  :  41
 --------------------------------------------------------------------
 isymop:   0   1   0
          -1  -1  -1
           0   0   1

 gtrans:     0.0000000     0.0000000     0.0000000

 ptrans:     0.0000000     0.0000000     0.0000000
 rotmap:
 (   1->   1) 


 irot  :  42
 --------------------------------------------------------------------
 isymop:   0  -1   0
           1   1   1
           0   0  -1

 gtrans:     0.0000000     0.0000000     0.0000000

 ptrans:     0.0000000     0.0000000     0.0000000
 rotmap:
 (   1->   1) 


 irot  :  43
 --------------------------------------------------------------------
 isymop:  -1   0   0
           0   0  -1
           0  -1   0

 gtrans:     0.0000000     0.0000000     0.0000000

 ptrans:     0.0000000     0.0000000     0.0000000
 rotmap:
 (   1->   1) 


 irot  :  44
 --------------------------------------------------------------------
 isymop:   1   0   0
           0   0   1
           0   1   0

 gtrans:     0.0000000     0.0000000     0.0000000

 ptrans:     0.0000000     0.0000000     0.0000000
 rotmap:
 (   1->   1) 


 irot  :  45
 --------------------------------------------------------------------
 isymop:   0  -1   0
          -1   0   0
           0   0  -1

 gtrans:     0.0000000     0.0000000     0.0000000

 ptrans:     0.0000000     0.0000000     0.0000000
 rotmap:
 (   1->   1) 


 irot  :  46
 --------------------------------------------------------------------
 isymop:   0   1   0
           1   0   0
           0   0   1

 gtrans:     0.0000000     0.0000000     0.0000000

 ptrans:     0.0000000     0.0000000     0.0000000
 rotmap:
 (   1->   1) 


 irot  :  47
 --------------------------------------------------------------------
 isymop:   0   0  -1
           0  -1   0
          -1   0   0

 gtrans:     0.0000000     0.0000000     0.0000000

 ptrans:     0.0000000     0.0000000     0.0000000
 rotmap:
 (   1->   1) 


 irot  :  48
 --------------------------------------------------------------------
 isymop:   0   0   1
           0   1   0
           1   0   0

 gtrans:     0.0000000     0.0000000     0.0000000

 ptrans:     0.0000000     0.0000000     0.0000000
 rotmap:
 (   1->   1) 


 KPOINTS: elephon created this file               

Automatic generation of k-mesh.
Space group operators:
 irot       det(A)        alpha          n_x          n_y          n_z        tau_x        tau_y        tau_z
    1     1.000000     0.000001     1.000000     0.000000     0.000000     0.000000     0.000000     0.000000
    2    -1.000000     0.000001     1.000000     0.000000     0.000000     0.000000     0.000000     0.000000
    3     1.000000   120.000000     0.577350    -0.577350    -0.577350     0.000000     0.000000     0.000000
    4    -1.000000   120.000000     0.577350    -0.577350    -0.577350     0.000000     0.000000     0.000000
    5     1.000000   120.000000    -0.577350     0.577350     0.577350     0.000000     0.000000     0.000000
    6    -1.000000   120.000000    -0.577350     0.577350     0.577350     0.000000     0.000000     0.000000
    7     1.000000    90.000000     0.000000     0.000000    -1.000000     0.000000     0.000000     0.000000
    8    -1.000000    90.000000     0.000000     0.000000    -1.000000     0.000000     0.000000     0.000000
    9     1.000000   180.000000     0.707107     0.000000    -0.707107     0.000000     0.000000     0.000000
   10    -1.000000   180.000000     0.707107     0.000000    -0.707107     0.000000     0.000000     0.000000
   11     1.000000    90.000000    -1.000000     0.000000     0.000000     0.000000     0.000000     0.000000
   12    -1.000000    90.000000    -1.000000     0.000000     0.000000     0.000000     0.000000     0.000000
   13     1.000000   180.000000     0.000000     0.000000     1.000000     0.000000     0.000000     0.000000
   14    -1.000000   180.000000     0.000000     0.000000     1.000000     0.000000     0.000000     0.000000
   15     1.000000   120.000000    -0.577350    -0.577350     0.577350     0.000000     0.000000     0.000000
   16    -1.000000   120.000000    -0.577350    -0.577350     0.577350     0.000000     0.000000     0.000000
   17     1.000000   120.000000    -0.577350    -0.577350    -0.577350     0.000000     0.000000     0.000000
   18    -1.000000   120.000000    -0.577350    -0.577350    -0.577350     0.000000     0.000000     0.000000
   19     1.000000    90.000000     0.000000     0.000000     1.000000     0.000000     0.000000     0.000000
   20    -1.000000    90.000000     0.000000     0.000000     1.000000     0.000000     0.000000     0.000000
   21     1.000000    90.000000     0.000000    -1.000000     0.000000     0.000000     0.000000     0.000000
   22    -1.000000    90.000000     0.000000    -1.000000     0.000000     0.000000     0.000000     0.000000
   23     1.000000   180.000000     0.000000     0.707107     0.707107     0.000000     0.000000     0.000000
   24    -1.000000   180.000000     0.000000     0.707107     0.707107     0.000000     0.000000     0.000000
   25     1.000000   120.000000     0.577350     0.577350     0.577350     0.000000     0.000000     0.000000
   26    -1.000000   120.000000     0.577350     0.577350     0.577350     0.000000     0.000000     0.000000
   27     1.000000   120.000000     0.577350    -0.577350     0.577350     0.000000     0.000000     0.000000
   28    -1.000000   120.000000     0.577350    -0.577350     0.577350     0.000000     0.000000     0.000000
   29     1.000000   180.000000     0.000000     1.000000     0.000000     0.000000     0.000000     0.000000
   30    -1.000000   180.000000     0.000000     1.000000     0.000000     0.000000     0.000000     0.000000
   31     1.000000    90.000000     1.000000     0.000000     0.000000     0.000000     0.000000     0.000000
   32    -1.000000    90.000000     1.000000     0.000000     0.000000     0.000000     0.000000     0.000000
   33     1.000000   180.000000     0.707107    -0.707107     0.000000     0.000000     0.000000     0.000000
   34    -1.000000   180.000000     0.707107    -0.707107     0.000000     0.000000     0.000000     0.000000
   35     1.000000    90.000000     0.000000     1.000000     0.000000     0.000000     0.000000     0.000000
   36    -1.000000    90.000000     0.000000     1.000000     0.000000     0.000000     0.000000     0.000000
   37     1.000000   120.000000     0.577350     0.577350    -0.577350     0.000000     0.000000     0.000000
   38    -1.000000   120.000000     0.577350     0.577350    -0.577350     0.000000     0.000000     0.000000
   39     1.000000   180.000000     1.000000     0.000000     0.000000     0.000000     0.000000     0.000000
   40    -1.000000   180.000000     1.000000     0.000000     0.000000     0.000000     0.000000     0.000000
   41     1.000000   120.000000    -0.577350     0.577350    -0.577350     0.000000     0.000000     0.000000
   42    -1.000000   120.000000    -0.577350     0.577350    -0.577350     0.000000     0.000000     0.000000
   43     1.000000   180.000000     0.707107     0.000000     0.707107     0.000000     0.000000     0.000000
   44    -1.000000   180.000000     0.707107     0.000000     0.707107     0.000000     0.000000     0.000000
   45     1.000000   180.000000     0.707107     0.707107     0.000000     0.000000     0.000000     0.000000
   46    -1.000000   180.000000     0.707107     0.707107     0.000000     0.000000     0.000000     0.000000
   47     1.000000   180.000000     0.000000    -0.707107     0.707107     0.000000     0.000000     0.000000
   48    -1.000000   180.000000     0.000000    -0.707107     0.707107     0.000000     0.000000     0.000000
 
 Subroutine IBZKPT returns following result:
 ===========================================
 
 Found     47 irreducible k-points:
 
 Following reciprocal coordinates:
            Coordinates               Weight
  0.000000  0.000000  0.000000      1.000000
  0.100000  0.000000  0.000000      8.000000
  0.200000  0.000000  0.000000      8.000000
  0.300000  0.000000  0.000000      8.000000
  0.400000  0.000000  0.000000      8.000000
  0.500000  0.000000  0.000000      4.000000
  0.100000  0.100000  0.000000      6.000000
  0.200000  0.100000  0.000000     24.000000
  0.300000  0.100000  0.000000     24.000000
  0.400000  0.100000  0.000000     24.000000
  0.500000  0.100000  0.000000     24.000000
 -0.400000  0.100000  0.000000     24.000000
 -0.300000  0.100000  0.000000     24.000000
 -0.200000  0.100000  0.000000     24.000000
 -0.100000  0.100000  0.000000     12.000000
  0.200000  0.200000  0.000000      6.000000
  0.300000  0.200000  0.000000     24.000000
  0.400000  0.200000  0.000000     24.000000
  0.500000  0.200000  0.000000     24.000000
 -0.400000  0.200000  0.000000     24.000000
 -0.300000  0.200000  0.000000     24.000000
 -0.200000  0.200000  0.000000     12.000000
  0.300000  0.300000  0.000000      6.000000
  0.400000  0.300000  0.000000     24.000000
  0.500000  0.300000  0.000000     24.000000
 -0.400000  0.300000  0.000000     24.000000
 -0.300000  0.300000  0.000000     12.000000
  0.400000  0.400000  0.000000      6.000000
  0.500000  0.400000  0.000000     24.000000
 -0.400000  0.400000  0.000000     12.000000
  0.500000  0.500000  0.000000      3.000000
  0.300000  0.200000  0.100000     24.000000
  0.400000  0.200000  0.100000     48.000000
  0.500000  0.200000  0.100000     48.000000
 -0.400000  0.200000  0.100000     24.000000
  0.400000  0.300000  0.100000     24.000000
  0.500000  0.300000  0.100000     48.000000
 -0.400000  0.300000  0.100000     48.000000
 -0.300000  0.300000  0.100000     48.000000
 -0.200000  0.300000  0.100000     24.000000
  0.500000  0.400000  0.100000     24.000000
 -0.400000  0.400000  0.100000     48.000000
 -0.300000  0.400000  0.100000     24.000000
 -0.400000  0.500000  0.100000     12.000000
 -0.400000  0.400000  0.200000     24.000000
 -0.300000  0.400000  0.200000     24.000000
 -0.300000  0.500000  0.200000     12.000000
 
 Following cartesian coordinates:
            Coordinates               Weight
 -0.000000  0.000000  0.000000      1.000000
 -0.024765 -0.024765  0.024765      8.000000
 -0.049529 -0.049529  0.049529      8.000000
 -0.074294 -0.074294  0.074294      8.000000
 -0.099059 -0.099059  0.099059      8.000000
 -0.123823 -0.123823  0.123823      4.000000
 -0.000000  0.000000  0.049529      6.000000
 -0.024765 -0.024765  0.074294     24.000000
 -0.049529 -0.049529  0.099059     24.000000
 -0.074294 -0.074294  0.123823     24.000000
 -0.099059 -0.099059  0.148588     24.000000
  0.123823  0.123823 -0.074294     24.000000
  0.099059  0.099059 -0.049529     24.000000
  0.074294  0.074294 -0.024765     24.000000
  0.049529  0.049529  0.000000     12.000000
 -0.000000  0.000000  0.099059      6.000000
 -0.024765 -0.024765  0.123823     24.000000
 -0.049529 -0.049529  0.148588     24.000000
 -0.074294 -0.074294  0.173353     24.000000
  0.148588  0.148588 -0.049529     24.000000
  0.123823  0.123823 -0.024765     24.000000
  0.099059  0.099059  0.000000     12.000000
 -0.000000  0.000000  0.148588      6.000000
 -0.024765 -0.024765  0.173353     24.000000
 -0.049529 -0.049529  0.198117     24.000000
  0.173353  0.173353 -0.024765     24.000000
  0.148588  0.148588  0.000000     12.000000
 -0.000000  0.000000  0.198117      6.000000
 -0.024765 -0.024765  0.222882     24.000000
  0.198117  0.198117  0.000000     12.000000
 -0.000000  0.000000  0.247647      3.000000
 -0.049529  0.000000  0.099059     24.000000
 -0.074294 -0.024765  0.123823     48.000000
 -0.099059 -0.049529  0.148588     48.000000
  0.123823  0.173353 -0.074294     24.000000
 -0.049529  0.000000  0.148588     24.000000
 -0.074294 -0.024765  0.173353     48.000000
  0.148588  0.198117 -0.049529     48.000000
  0.123823  0.173353 -0.024765     48.000000
  0.099059  0.148588  0.000000     24.000000
 -0.049529  0.000000  0.198117     24.000000
  0.173353  0.222882 -0.024765     48.000000
  0.148588  0.198117  0.000000     24.000000
  0.198117  0.247647 -0.000000     12.000000
  0.148588  0.247647 -0.049529     24.000000
  0.123823  0.222882 -0.024765     24.000000
  0.148588  0.247647  0.000000     12.000000
 


--------------------------------------------------------------------------------------------------------




 Dimension of arrays:
   k-points           NKPTS =     47   k-points in BZ     NKDIM =     47   number of bands    NBANDS=      5
   number of dos      NEDOS =    301   number of ions     NIONS =      1
   non local maximal  LDIM  =      4   non local SUM 2l+1 LMDIM =      8
   total plane-waves  NPLWV =   4096
   max r-space proj   IRMAX =      1   max aug-charges    IRDMAX=   9883
   dimension x,y,z NGX =    16 NGY =   16 NGZ =   16
   dimension x,y,z NGXF=    32 NGYF=   32 NGZF=   32
   support grid    NGXF=    32 NGYF=   32 NGZF=   32
   ions per type =               1
 NGX,Y,Z   is equivalent  to a cutoff of   9.32,  9.32,  9.32 a.u.
 NGXF,Y,Z  is equivalent  to a cutoff of  18.63, 18.63, 18.63 a.u.


 I would recommend the setting:
   dimension x,y,z NGX =    16 NGY =   16 NGZ =   16
 SYSTEM =  unknown system                          
 POSCAR =  Al_mp-134_primitive.cif                 

 Startparameter for this run:
   NWRITE =      3    write-flag & timer
   PREC   = accura    normal or accurate (medium, high low for compatibility)
   ISTART =      0    job   : 0-new  1-cont  2-samecut
   ICHARG =      1    charge: 1-file 2-atom 10-const
   ISPIN  =      1    spin polarized calculation?
   LNONCOLLINEAR =      F non collinear calculations
   LSORBIT =      F    spin-orbit coupling
   INIWAV =      1    electr: 0-lowe 1-rand  2-diag
   LASPH  =      F    aspherical Exc in radial PAW
   METAGGA=      F    non-selfconsistent MetaGGA calc.

 Electronic Relaxation 1
   ENCUT  =  300.0 eV  22.05 Ry    4.70 a.u.   4.03  4.03  4.03*2*pi/ulx,y,z
   ENINI  =  300.0     initial cutoff
   ENAUG  =  291.1 eV  augmentation charge cutoff
   NELM   =    100;   NELMIN=  2; NELMDL= -5     # of ELM steps 
   EDIFF  = 0.1E-07   stopping-criterion for ELM
   LREAL  =      F    real-space projection
   NLSPLINE    = F    spline interpolate recip. space projectors
   LCOMPAT=      F    compatible to vasp.4.4
   GGA_COMPAT  = T    GGA compatible to vasp.4.4-vasp.4.6
   LMAXPAW     = -100 max onsite density
   LMAXMIX     =    2 max onsite mixed and CHGCAR
   VOSKOWN=      0    Vosko Wilk Nusair interpolation
   ROPT   =    0.00000
 Ionic relaxation
   EDIFFG = 0.1E-06   stopping-criterion for IOM
   NSW    =      0    number of steps for IOM
   NBLOCK =      1;   KBLOCK =      1    inner block; outer block 
   IBRION =     -1    ionic relax: 0-MD 1-quasi-New 2-CG
   NFREE  =      0    steps in history (QN), initial steepest desc. (CG)
   ISIF   =      3    stress and relaxation
   IWAVPR =     10    prediction:  0-non 1-charg 2-wave 3-comb
   ISYM   =      2    0-nonsym 1-usesym 2-fastsym
   LCORR  =      T    Harris-Foulkes like correction to forces

   POTIM  = 0.5000    time-step for ionic-motion
   TEIN   =    0.0    initial temperature
   TEBEG  =    0.0;   TEEND  =   0.0 temperature during run
   SMASS  =  -3.00    Nose mass-parameter (am)
   estimated Nose-frequenzy (Omega)   =  0.10E-29 period in steps =****** mass=  -0.186E-27a.u.
   SCALEE = 1.0000    scale energy and forces
   NPACO  =    256;   APACO  = 16.0  distance and # of slots for P.C.
   PSTRESS=    0.0 pullay stress

  Mass of Ions in am
   POMASS =  26.98
  Ionic Valenz
   ZVAL   =   3.00
  Atomic Wigner-Seitz radii
   RWIGS  =  -1.00
  virtual crystal weights 
   VCA    =   1.00
   NELECT =       3.0000    total number of electrons
   NUPDOWN=      -1.0000    fix difference up-down

 DOS related values:
   EMIN   =  10.00;   EMAX   =-10.00  energy-range for DOS
   EFERMI =   0.00
   ISMEAR =     2;   SIGMA  =   0.20  broadening in eV -4-tet -1-fermi 0-gaus

 Electronic relaxation 2 (details)
   IALGO  =     38    algorithm
   LDIAG  =      T    sub-space diagonalisation (order eigenvalues)
   LSUBROT=      F    optimize rotation matrix (better conditioning)
   TURBO    =      0    0=normal 1=particle mesh
   IRESTART =      0    0=no restart 2=restart with 2 vectors
   NREBOOT  =      0    no. of reboots
   NMIN     =      0    reboot dimension
   EREF     =   0.00    reference energy to select bands
   IMIX   =      4    mixing-type and parameters
     AMIX     =   0.40;   BMIX     =  1.00
     AMIX_MAG =   1.60;   BMIX_MAG =  1.00
     AMIN     =   0.10
     WC   =   100.;   INIMIX=   1;  MIXPRE=   1;  MAXMIX= -45

 Intra band minimization:
   WEIMIN = 0.0000     energy-eigenvalue tresh-hold
   EBREAK =  0.50E-09  absolut break condition
   DEPER  =   0.30     relativ break condition  

   TIME   =   0.40     timestep for ELM

  volume/ion in A,a.u.               =      16.46       111.08
  Fermi-wavevector in a.u.,A,eV,Ry     =   0.928184  1.754014 11.721777  0.861526
  Thomas-Fermi vector in A             =   2.054334

 Write flags
   LWAVE  =      T    write WAVECAR
   LCHARG =      T    write CHGCAR
   LVTOT  =      T    write LOCPOT, total local potential
   LVHAR  =      F    write LOCPOT, Hartree potential only
   LELF   =      F    write electronic localiz. function (ELF)
   LORBIT =      0    0 simple, 1 ext, 2 COOP (PROOUT)


 Dipole corrections
   LMONO  =      F    monopole corrections only (constant potential shift)
   LDIPOL =      F    correct potential (dipole corrections)
   IDIPOL =      0    1-x, 2-y, 3-z, 4-all directions 
   EPSILON=  1.0000000 bulk dielectric constant

 Exchange correlation treatment:
   GGA     =    --    GGA type
   LEXCH   =     8    internal setting for exchange type
   VOSKOWN=      0    Vosko Wilk Nusair interpolation
   LHFCALC =     F    Hartree Fock is set to
   LHFONE  =     F    Hartree Fock one center treatment
   AEXX    =    0.0000 exact exchange contribution

 Linear response parameters
   LEPSILON=     F    determine dielectric tensor
   LRPA    =     F    only Hartree local field effects (RPA)
   LNABLA  =     F    use nabla operator in PAW spheres
   LVEL    =     F    velocity operator in full k-point grid
   LINTERFAST=   F  fast interpolation
   KINTER  =     0    interpolate to denser k-point grid
   CSHIFT  =0.1000    complex shift for real part using Kramers Kronig
   OMEGAMAX=  -1.0    maximum frequency
   DEG_THRESHOLD= 0.2000000E-02 threshold for treating states as degnerate
   RTIME   =    0.100 relaxation time in fs

 Orbital magnetization related:
   ORBITALMAG=     F  switch on orbital magnetization
   LCHIMAG   =     F  perturbation theory with respect to B field
   DQ        =  0.001000  dq finite difference perturbation B field



--------------------------------------------------------------------------------------------------------


 Static calculation
 charge density and potential will be updated during run
 non-spin polarized calculation
 Variant of blocked Davidson
 Davidson routine will perform the subspace rotation
 perform sub-space diagonalisation
    after iterative eigenvector-optimisation
 modified Broyden-mixing scheme, WC =      100.0
 initial mixing is a Kerker type mixing with AMIX =  0.4000 and BMIX =      1.0000
 Hartree-type preconditioning will be used
 using additional bands            3
 reciprocal scheme for non local part
 use partial core corrections
 calculate Harris-corrections to forces   (improved forces if not selfconsistent)
 use gradient corrections 
 use of overlap-Matrix (Vanderbilt PP)
 Methfessel and Paxton  Order N= 2 SIGMA  =   0.20


--------------------------------------------------------------------------------------------------------


  energy-cutoff  :      300.00
  volume of cell :       16.46
      direct lattice vectors                 reciprocal lattice vectors
    -2.019006186 -0.000000000  2.019006186    -0.247646591 -0.247646591  0.247646591
     0.000000000  2.019006186  2.019006186     0.247646591  0.247646591  0.247646591
    -2.019006186  2.019006186 -0.000000000    -0.247646591  0.247646591 -0.247646591

  length of vectors
     2.855305931  2.855305931  2.855305931     0.428936479  0.428936479  0.428936479



 k-points in units of 2pi/SCALE and weight: elephon created this file               
  -0.00000000  0.00000000  0.00000000       0.001
  -0.02476466 -0.02476466  0.02476466       0.008
  -0.04952932 -0.04952932  0.04952932       0.008
  -0.07429398 -0.07429398  0.07429398       0.008
  -0.09905864 -0.09905864  0.09905864       0.008
  -0.12382330 -0.12382330  0.12382330       0.004
  -0.00000000  0.00000000  0.04952932       0.006
  -0.02476466 -0.02476466  0.07429398       0.024
  -0.04952932 -0.04952932  0.09905864       0.024
  -0.07429398 -0.07429398  0.12382330       0.024
  -0.09905864 -0.09905864  0.14858795       0.024
   0.12382330  0.12382330 -0.07429398       0.024
   0.09905864  0.09905864 -0.04952932       0.024
   0.07429398  0.07429398 -0.02476466       0.024
   0.04952932  0.04952932  0.00000000       0.012
  -0.00000000  0.00000000  0.09905864       0.006
  -0.02476466 -0.02476466  0.12382330       0.024
  -0.04952932 -0.04952932  0.14858795       0.024
  -0.07429398 -0.07429398  0.17335261       0.024
   0.14858795  0.14858795 -0.04952932       0.024
   0.12382330  0.12382330 -0.02476466       0.024
   0.09905864  0.09905864  0.00000000       0.012
  -0.00000000  0.00000000  0.14858795       0.006
  -0.02476466 -0.02476466  0.17335261       0.024
  -0.04952932 -0.04952932  0.19811727       0.024
   0.17335261  0.17335261 -0.02476466       0.024
   0.14858795  0.14858795  0.00000000       0.012
  -0.00000000  0.00000000  0.19811727       0.006
  -0.02476466 -0.02476466  0.22288193       0.024
   0.19811727  0.19811727  0.00000000       0.012
  -0.00000000  0.00000000  0.24764659       0.003
  -0.04952932  0.00000000  0.09905864       0.024
  -0.07429398 -0.02476466  0.12382330       0.048
  -0.09905864 -0.04952932  0.14858795       0.048
   0.12382330  0.17335261 -0.07429398       0.024
  -0.04952932  0.00000000  0.14858795       0.024
  -0.07429398 -0.02476466  0.17335261       0.048
   0.14858795  0.19811727 -0.04952932       0.048
   0.12382330  0.17335261 -0.02476466       0.048
   0.09905864  0.14858795  0.00000000       0.024
  -0.04952932  0.00000000  0.19811727       0.024
   0.17335261  0.22288193 -0.02476466       0.048
   0.14858795  0.19811727  0.00000000       0.024
   0.19811727  0.24764659 -0.00000000       0.012
   0.14858795  0.24764659 -0.04952932       0.024
   0.12382330  0.22288193 -0.02476466       0.024
   0.14858795  0.24764659  0.00000000       0.012

 k-points in reciprocal lattice and weights: elephon created this file               
   0.00000000  0.00000000  0.00000000       0.001
   0.10000000  0.00000000  0.00000000       0.008
   0.20000000  0.00000000  0.00000000       0.008
   0.30000000  0.00000000  0.00000000       0.008
   0.40000000  0.00000000  0.00000000       0.008
   0.50000000  0.00000000  0.00000000       0.004
   0.10000000  0.10000000  0.00000000       0.006
   0.20000000  0.10000000  0.00000000       0.024
   0.30000000  0.10000000  0.00000000       0.024
   0.40000000  0.10000000  0.00000000       0.024
   0.50000000  0.10000000  0.00000000       0.024
  -0.40000000  0.10000000  0.00000000       0.024
  -0.30000000  0.10000000  0.00000000       0.024
  -0.20000000  0.10000000  0.00000000       0.024
  -0.10000000  0.10000000  0.00000000       0.012
   0.20000000  0.20000000  0.00000000       0.006
   0.30000000  0.20000000  0.00000000       0.024
   0.40000000  0.20000000  0.00000000       0.024
   0.50000000  0.20000000  0.00000000       0.024
  -0.40000000  0.20000000  0.00000000       0.024
  -0.30000000  0.20000000  0.00000000       0.024
  -0.20000000  0.20000000  0.00000000       0.012
   0.30000000  0.30000000  0.00000000       0.006
   0.40000000  0.30000000  0.00000000       0.024
   0.50000000  0.30000000  0.00000000       0.024
  -0.40000000  0.30000000  0.00000000       0.024
  -0.30000000  0.30000000  0.00000000       0.012
   0.40000000  0.40000000  0.00000000       0.006
   0.50000000  0.40000000  0.00000000       0.024
  -0.40000000  0.40000000  0.00000000       0.012
   0.50000000  0.50000000  0.00000000       0.003
   0.30000000  0.20000000  0.10000000       0.024
   0.40000000  0.20000000  0.10000000       0.048
   0.50000000  0.20000000  0.10000000       0.048
  -0.40000000  0.20000000  0.10000000       0.024
   0.40000000  0.30000000  0.10000000       0.024
   0.50000000  0.30000000  0.10000000       0.048
  -0.40000000  0.30000000  0.10000000       0.048
  -0.30000000  0.30000000  0.10000000       0.048
  -0.20000000  0.30000000  0.10000000       0.024
   0.50000000  0.40000000  0.10000000       0.024
  -0.40000000  0.40000000  0.10000000       0.048
  -0.30000000  0.40000000  0.10000000       0.024
  -0.40000000  0.50000000  0.10000000       0.012
  -0.40000000  0.40000000  0.20000000       0.024
  -0.30000000  0.40000000  0.20000000       0.024
  -0.30000000  0.50000000  0.20000000       0.012

 position of ions in fractional coordinates (direct lattice) 
   0.00000000  0.00000000  0.00000000

 position of ions in cartesian coordinates  (Angst):
   0.00000000  0.00000000  0.00000000



--------------------------------------------------------------------------------------------------------


 k-point  1 :   0.0000 0.0000 0.0000  plane waves:     181
 k-point  2 :   0.1000 0.0000 0.0000  plane waves:     178
 k-point  3 :   0.2000 0.0000 0.0000  plane waves:     193
 k-point  4 :   0.3000 0.0000 0.0000  plane waves:     192
 k-point  5 :   0.4000 0.0000 0.0000  plane waves:     195
 k-point  6 :   0.5000 0.0000 0.0000  plane waves:     180
 k-point  7 :   0.1000 0.1000 0.0000  plane waves:     177
 k-point  8 :   0.2000 0.1000 0.0000  plane waves:     189
 k-point  9 :   0.3000 0.1000 0.0000  plane waves:     194
 k-point 10 :   0.4000 0.1000 0.0000  plane waves:     194
 k-point 11 :   0.5000 0.1000 0.0000  plane waves:     191
 k-point 12 :  -0.4000 0.1000 0.0000  plane waves:     190
 k-point 13 :  -0.3000 0.1000 0.0000  plane waves:     193
 k-point 14 :  -0.2000 0.1000 0.0000  plane waves:     192
 k-point 15 :  -0.1000 0.1000 0.0000  plane waves:     180
 k-point 16 :   0.2000 0.2000 0.0000  plane waves:     186
 k-point 17 :   0.3000 0.2000 0.0000  plane waves:     192
 k-point 18 :   0.4000 0.2000 0.0000  plane waves:     195
 k-point 19 :   0.5000 0.2000 0.0000  plane waves:     192
 k-point 20 :  -0.4000 0.2000 0.0000  plane waves:     190
 k-point 21 :  -0.3000 0.2000 0.0000  plane waves:     198
 k-point 22 :  -0.2000 0.2000 0.0000  plane waves:     200
 k-point 23 :   0.3000 0.3000 0.0000  plane waves:     198
 k-point 24 :   0.4000 0.3000 0.0000  plane waves:     203
 k-point 25 :   0.5000 0.3000 0.0000  plane waves:     196
 k-point 26 :  -0.4000 0.3000 0.0000  plane waves:     192
 k-point 27 :  -0.3000 0.3000 0.0000  plane waves:     194
 k-point 28 :   0.4000 0.4000 0.0000  plane waves:     198
 k-point 29 :   0.5000 0.4000 0.0000  plane waves:     198
 k-point 30 :  -0.4000 0.4000 0.0000  plane waves:     198
 k-point 31 :   0.5000 0.5000 0.0000  plane waves:     190
 k-point 32 :   0.3000 0.2000 0.1000  plane waves:     194
 k-point 33 :   0.4000 0.2000 0.1000  plane waves:     193
 k-point 34 :   0.5000 0.2000 0.1000  plane waves:     196
 k-point 35 :  -0.4000 0.2000 0.1000  plane waves:     194
 k-point 36 :   0.4000 0.3000 0.1000  plane waves:     197
 k-point 37 :   0.5000 0.3000 0.1000  plane waves:     195
 k-point 38 :  -0.4000 0.3000 0.1000  plane waves:     196
 k-point 39 :  -0.3000 0.3000 0.1000  plane waves:     196
 k-point 40 :  -0.2000 0.3000 0.1000  plane waves:     192
 k-point 41 :   0.5000 0.4000 0.1000  plane waves:     200
 k-point 42 :  -0.4000 0.4000 0.1000  plane waves:     200
 k-point 43 :  -0.3000 0.4000 0.1000  plane waves:     197
 k-point 44 :  -0.4000 0.5000 0.1000  plane waves:     200
 k-point 45 :  -0.4000 0.4000 0.2000  plane waves:     196
 k-point 46 :  -0.3000 0.4000 0.2000  plane waves:     198
 k-point 47 :  -0.3000 0.5000 0.2000  plane waves:     204

 maximum and minimum number of plane-waves per node :       204      177

 maximum number of plane-waves:       204
 maximum index in each direction: 
   IXMAX=    4   IYMAX=    4   IZMAX=    4
   IXMIN=   -4   IYMIN=   -4   IZMIN=   -4

 WARNING: aliasing errors must be expected set NGX to  18 to avoid them
 WARNING: aliasing errors must be expected set NGY to  18 to avoid them
 WARNING: aliasing errors must be expected set NGZ to  18 to avoid them
 aliasing errors are usually negligible using standard VASP settings
 and one can safely disregard these warnings

 serial   3D FFT for wavefunctions
 parallel 3D FFT for charge:
    minimum data exchange during FFTs selected (reduces bandwidth)


 total amount of memory used by VASP on root node    34406. kBytes
========================================================================

   base      :      30000. kBytes
   nonl-proj :        616. kBytes
   fftplans  :       1184. kBytes
   grid      :       1806. kBytes
   one-center:          3. kBytes
   wavefun   :        797. kBytes

     INWAV:  cpu time    0.0000: real time    0.0000
 Broyden mixing: mesh for mixing (old mesh)
   NGX =  9   NGY =  9   NGZ =  9
  (NGX  = 32   NGY  = 32   NGZ  = 32)
  gives a total of    729 points

 initial charge density was supplied:
 charge density of overlapping atoms calculated
 number of electron       3.0000000 magnetization 
 keeping initial charge density in first step


--------------------------------------------------------------------------------------------------------


 Maximum index for augmentation-charges         9453 (set IRDMAX)


--------------------------------------------------------------------------------------------------------


 First call to EWALD:  gamma=   0.697
 Maximum number of real-space cells 3x 3x 3
 Maximum number of reciprocal cells 3x 3x 3

 FEWALD executed in parallel
    FEWALD:  cpu time    0.0009: real time    0.0009


----------------------------------------- Iteration    1(   1)  ---------------------------------------


    POTLOK:  cpu time    0.0220: real time    0.0221
    SETDIJ:  cpu time    0.0028: real time    0.0028
     EDDAV:  cpu time    0.1999: real time    0.2005
       DOS:  cpu time    0.0010: real time    0.0010
    --------------------------------------------
      LOOP:  cpu time    0.2268: real time    0.2276

 eigenvalue-minimisations  :   605
 total energy-change (2. order) :-0.3066469E+01  (-0.5595733E+02)
 number of electron       3.0000000 magnetization 
 augmentation part        3.0000000 magnetization 

 Free energy of the ion-electron system (eV)
  ---------------------------------------------------
  alpha Z        PSCENC =        -0.20405276
  Ewald energy   TEWEN  =       -73.57448264
  -Hartree energ DENC   =        -0.10051023
  -exchange      EXHF   =         0.00000000
  -V(xc)+E(xc)   XCENC  =       -26.23543754
  PAW double counting   =        66.20015713      -34.24562076
  entropy T*S    EENTRO =        -0.00165103
  eigenvalues    EBANDS =        11.55750520
  atomic energy  EATOM  =        53.53762400
  Solvation  Ediel_sol  =         0.00000000
  ---------------------------------------------------
  free energy    TOTEN  =        -3.06646862 eV

  energy without entropy =       -3.06481759  energy(sigma->0) =       -3.06605587


--------------------------------------------------------------------------------------------------------




 average (electrostatic) potential at core
  the test charge radii are     1.0406
  (the norm of the test charge is              1.0000)
       1 -71.8586



 E-fermi :   8.6717     XC(G=0): -10.1541     alpha+bet :-14.9121


 k-point     1 :       0.0000    0.0000    0.0000
  band No.  band energies     occupation 
      1      -3.1028      2.00000
      2      21.9733      0.00000
      3      23.9716      0.00000
      4      24.7960      0.00000
      5      34.0714      0.00000

 k-point     2 :       0.1000    0.0000    0.0000
  band No.  band energies     occupation 
      1      -2.8281      2.00000
      2      20.6504      0.00000
      3      25.6004      0.00000
      4      28.0363      0.00000
      5      30.0146      0.00000

 k-point     3 :       0.2000    0.0000    0.0000
  band No.  band energies     occupation 
      1      -1.9783      2.00000
      2      17.2883      0.00000
      3      23.9233      0.00000
      4      25.1434      0.00000
      5      26.3347      0.00000

 k-point     4 :       0.3000    0.0000    0.0000
  band No.  band energies     occupation 
      1      -0.5948      2.00000
      2      10.3991      0.00000
      3      20.9006      0.00000
      4      22.5078      0.00000
      5      24.3104      0.00000

 k-point     5 :       0.4000    0.0000    0.0000
  band No.  band energies     occupation 
      1       1.2876      2.00000
      2       6.7094      2.00000
      3      19.6325      0.00000
      4      21.1667      0.00000
      5      23.6861      0.00000

 k-point     6 :       0.5000    0.0000    0.0000
  band No.  band energies     occupation 
      1       3.6674      2.00000
      2       5.5359      2.00000
      3      21.1171      0.00000
      4      24.8023      0.00000
      5      31.0264      0.00000

 k-point     7 :       0.1000    0.1000    0.0000
  band No.  band energies     occupation 
      1      -2.7406      2.00000
      2      19.3709      0.00000
      3      22.5027      0.00000
      4      24.3637      0.00000
      5      28.0839      0.00000

 k-point     8 :       0.2000    0.1000    0.0000
  band No.  band energies     occupation 
      1      -2.0982      2.00000
      2      16.5992      0.00000
      3      20.5318      0.00000
      4      23.1289      0.00000
      5      27.7129      0.00000

 k-point     9 :       0.3000    0.1000    0.0000
  band No.  band energies     occupation 
      1      -0.9047      2.00000
      2      13.1854      0.00000
      3      18.7823      0.00000
      4      22.3936      0.00000
      5      33.4846      0.00000

 k-point    10 :       0.4000    0.1000    0.0000
  band No.  band energies     occupation 
      1       0.8745      2.00000
      2       8.5703      1.88548
      3      18.2702      0.00000
      4      20.9043      0.00000
      5      21.9563      0.00000

 k-point    11 :       0.5000    0.1000    0.0000
  band No.  band energies     occupation 
      1       2.9873      2.00000
      2       4.8800      2.00000
      3      18.0735      0.00000
      4      20.3534      0.00000
      5      22.2349      0.00000

 k-point    12 :      -0.4000    0.1000    0.0000
  band No.  band energies     occupation 
      1       2.1991      2.00000
      2       5.7583      2.00000
      3      18.0459      0.00000
      4      21.3947      0.00000
      5      23.5261      0.00000

 k-point    13 :      -0.3000    0.1000    0.0000
  band No.  band energies     occupation 
      1       0.1625      2.00000
      2       8.9421     -0.04662
      3      16.3997      0.00000
      4      21.7252      0.00000
      5      24.2049      0.00000

 k-point    14 :      -0.2000    0.1000    0.0000
  band No.  band energies     occupation 
      1      -1.3544      2.00000
      2      14.0577      0.00000
      3      17.2632      0.00000
      4      22.9815      0.00000
      5      25.7001      0.00000

 k-point    15 :      -0.1000    0.1000    0.0000
  band No.  band energies     occupation 
      1      -2.3746      2.00000
      2      18.6435      0.00000
      3      21.2260      0.00000
      4      24.6094      0.00000
      5      29.0864      0.00000

 k-point    16 :       0.2000    0.2000    0.0000
  band No.  band energies     occupation 
      1      -1.4124      2.00000
      2      18.0233      0.00000
      3      20.7906      0.00000
      4      24.4121      0.00000
      5      31.3532      0.00000

 k-point    17 :       0.3000    0.2000    0.0000
  band No.  band energies     occupation 
      1      -0.5643      2.00000
      2      13.6441      0.00000
      3      17.1569      0.00000
      4      18.2097      0.00000
      5      22.1630      0.00000

 k-point    18 :       0.4000    0.2000    0.0000
  band No.  band energies     occupation 
      1       1.0501      2.00000
      2      11.6756      0.00000
      3      17.5539      0.00000
      4      19.9697      0.00000
      5      23.3854      0.00000

 k-point    19 :       0.5000    0.2000    0.0000
  band No.  band energies     occupation 
      1       3.0359      2.00000
      2       6.5275      2.00000
      3      14.2527      0.00000
      4      17.7375      0.00000
      5      20.9972      0.00000

 k-point    20 :      -0.4000    0.2000    0.0000
  band No.  band energies     occupation 
      1       3.7830      2.00000
      2       5.5549      2.00000
      3      13.1107      0.00000
      4      21.5229      0.00000
      5      28.7313      0.00000

 k-point    21 :      -0.3000    0.2000    0.0000
  band No.  band energies     occupation 
      1       1.5749      2.00000
      2       8.4609      2.09784
      3      12.3848      0.00000
      4      19.2629      0.00000
      5      22.1839      0.00000

 k-point    22 :      -0.2000    0.2000    0.0000
  band No.  band energies     occupation 
      1      -0.0811      2.00000
      2      12.8770      0.00000
      3      14.0482      0.00000
      4      22.1156      0.00000
      5      32.0539      0.00000

 k-point    23 :       0.3000    0.3000    0.0000
  band No.  band energies     occupation 
      1       0.1781      2.00000
      2      15.6184      0.00000
      3      16.3418      0.00000
      4      18.6991      0.00000
      5      33.2004      0.00000

 k-point    24 :       0.4000    0.3000    0.0000
  band No.  band energies     occupation 
      1       1.4732      2.00000
      2      11.9359      0.00000
      3      12.0705      0.00000
      4      15.3319      0.00000
      5      16.3622      0.00000

 k-point    25 :       0.5000    0.3000    0.0000
  band No.  band energies     occupation 
      1       3.4547      2.00000
      2       9.5304      0.00000
      3      11.9419      0.00000
      4      16.9324      0.00000
      5      19.3836      0.00000

 k-point    26 :      -0.4000    0.3000    0.0000
  band No.  band energies     occupation 
      1       5.5559      2.00000
      2       5.8159      2.00000
      3       9.5286      0.00000
      4      15.9161      0.00000
      5      20.4595      0.00000

 k-point    27 :      -0.3000    0.3000    0.0000
  band No.  band energies     occupation 
      1       3.5577      2.00000
      2       8.0019      1.99990
      3      10.2892      0.00000
      4      17.5309      0.00000
      5      19.3754      0.00000

 k-point    28 :       0.4000    0.4000    0.0000
  band No.  band energies     occupation 
      1       2.6527      2.00000
      2       9.7685      0.00000
      3      14.0121      0.00000
      4      14.3841      0.00000
      5      16.8345      0.00000

 k-point    29 :       0.5000    0.4000    0.0000
  band No.  band energies     occupation 
      1       4.3465      2.00000
      2       8.1150      1.99848
      3      11.8737      0.00000
      4      14.3944      0.00000
      5      17.4950      0.00000

 k-point    30 :      -0.4000    0.4000    0.0000
  band No.  band energies     occupation 
      1       6.1871      2.00000
      2       7.1891      2.00000
      3       8.7290      0.43050
      4      16.4450      0.00000
      5      19.4888      0.00000

 k-point    31 :       0.5000    0.5000    0.0000
  band No.  band energies     occupation 
      1       5.6390      2.00000
      2       6.5208      2.00000
      3      13.9871      0.00000
      4      14.4215      0.00000
      5      16.3844      0.00000

 k-point    32 :       0.3000    0.2000    0.1000
  band No.  band energies     occupation 
      1      -1.2792      2.00000
      2      14.1591      0.00000
      3      16.3551      0.00000
      4      20.7924      0.00000
      5      25.6857      0.00000

 k-point    33 :       0.4000    0.2000    0.1000
  band No.  band energies     occupation 
      1       0.1616      2.00000
      2      13.4609      0.00000
      3      16.6779      0.00000
      4      20.9287      0.00000
      5      24.7098      0.00000

 k-point    34 :       0.5000    0.2000    0.1000
  band No.  band energies     occupation 
      1       1.9565      2.00000
      2       7.2862      2.00000
      3      15.1291      0.00000
      4      17.3789      0.00000
      5      23.1453      0.00000

 k-point    35 :      -0.4000    0.2000    0.1000
  band No.  band energies     occupation 
      1       4.2291      2.00000
      2       4.4609      2.00000
      3      14.8821      0.00000
      4      16.1639      0.00000
      5      24.7600      0.00000

 k-point    36 :       0.4000    0.3000    0.1000
  band No.  band energies     occupation 
      1       0.5554      2.00000
      2      12.4853      0.00000
      3      14.6440      0.00000
      4      18.3574      0.00000
      5      22.5393      0.00000

 k-point    37 :       0.5000    0.3000    0.1000
  band No.  band energies     occupation 
      1       2.3281      2.00000
      2      10.8216      0.00000
      3      13.4963      0.00000
      4      14.8419      0.00000
      5      22.3159      0.00000

 k-point    38 :      -0.4000    0.3000    0.1000
  band No.  band energies     occupation 
      1       4.6803      2.00000
      2       6.1967      2.00000
      3      14.1731      0.00000
      4      15.0790      0.00000
      5      24.4134      0.00000

 k-point    39 :      -0.3000    0.3000    0.1000
  band No.  band energies     occupation 
      1       3.9172      2.00000
      2       7.6853      2.00000
      3      17.2661      0.00000
      4      27.0143      0.00000
      5      37.0955      0.00000

 k-point    40 :      -0.2000    0.3000    0.1000
  band No.  band energies     occupation 
      1       1.8061      2.00000
      2      10.5504      0.00000
      3      15.0398      0.00000
      4      24.4331      0.00000
      5      27.0207      0.00000

 k-point    41 :       0.5000    0.4000    0.1000
  band No.  band energies     occupation 
      1       3.0000      2.00000
      2      10.6974      0.00000
      3      12.1620      0.00000
      4      13.6691      0.00000
      5      21.5661      0.00000

 k-point    42 :      -0.4000    0.4000    0.1000
  band No.  band energies     occupation 
      1       5.6592      2.00000
      2       8.6593      1.13067
      3       9.9889      0.00000
      4      13.1536      0.00000
      5      25.5181      0.00000

 k-point    43 :      -0.3000    0.4000    0.1000
  band No.  band energies     occupation 
      1       5.8113      2.00000
      2       7.1897      2.00000
      3       9.0837      0.00978
      4      13.2665      0.00000
      5      25.3332      0.00000

 k-point    44 :      -0.4000    0.5000    0.1000
  band No.  band energies     occupation 
      1       5.8667      2.00000
      2       6.9754      2.00000
      3      11.1420      0.00000
      4      12.6284      0.00000
      5      19.3104      0.00000

 k-point    45 :      -0.4000    0.4000    0.2000
  band No.  band energies     occupation 
      1       4.1814      2.00000
      2       9.4054      0.00001
      3      10.8299      0.00000
      4      13.6168      0.00000
      5      24.0009      0.00000

 k-point    46 :      -0.3000    0.4000    0.2000
  band No.  band energies     occupation 
      1       6.1789      2.00000
      2       6.5035      2.00000
      3      10.3702      0.00000
      4      11.6439      0.00000
      5      24.1474      0.00000

 k-point    47 :      -0.3000    0.5000    0.2000
  band No.  band energies     occupation 
      1       6.8625      2.00000
      2       8.2560      1.99032
      3       9.8737      0.00000
      4      19.9054      0.00000
      5      25.3025      0.00000


--------------------------------------------------------------------------------------------------------


 soft charge-density along one line, spin component           1
         0         1         2         3         4         5         6         7         8         9
 total charge-density along one line

 pseudopotential strength for first ion, spin component:           1
  8.410  14.332  -0.000  -0.000  -0.000  -0.000  -0.000  -0.000
 14.332  24.425  -0.000  -0.000  -0.000  -0.000  -0.000  -0.000
 -0.000  -0.000   1.986   0.000  -0.000   5.721   0.000  -0.000
 -0.000  -0.000   0.000   1.986  -0.000   0.000   5.721  -0.000
 -0.000  -0.000  -0.000  -0.000   1.986  -0.000  -0.000   5.721
 -0.000  -0.000   5.721   0.000  -0.000  16.394   0.000  -0.000
 -0.000  -0.000   0.000   5.721  -0.000   0.000  16.394  -0.000
 -0.000  -0.000  -0.000  -0.000   5.721  -0.000  -0.000  16.394
 total augmentation occupancy for first ion, spin component:           1
  2.000   0.000   0.000   0.000   0.000   0.000   0.000   0.000
  0.000   0.000   0.000   0.000   0.000   0.000   0.000   0.000
  0.000   0.000   0.333   0.000   0.000   0.000   0.000   0.000
  0.000   0.000   0.000   0.333   0.000   0.000   0.000   0.000
  0.000   0.000   0.000   0.000   0.333   0.000   0.000   0.000
  0.000   0.000   0.000   0.000   0.000   0.000   0.000   0.000
  0.000   0.000   0.000   0.000   0.000   0.000   0.000   0.000
  0.000   0.000   0.000   0.000   0.000   0.000   0.000   0.000


----------------------------------------- Iteration    1(   2)  ---------------------------------------


     EDDAV:  cpu time    0.2219: real time    0.2237
       DOS:  cpu time    0.0013: real time    0.0013
    --------------------------------------------
      LOOP:  cpu time    0.2264: real time    0.2282

 eigenvalue-minimisations  :   655
 total energy-change (2. order) :-0.6727476E+00  (-0.6661388E+00)
 number of electron       3.0000000 magnetization 
 augmentation part        3.0000000 magnetization 

 Free energy of the ion-electron system (eV)
  ---------------------------------------------------
  alpha Z        PSCENC =        -0.20405276
  Ewald energy   TEWEN  =       -73.57448264
  -Hartree energ DENC   =        -0.10051023
  -exchange      EXHF   =         0.00000000
  -V(xc)+E(xc)   XCENC  =       -26.23543754
  PAW double counting   =        66.20015713      -34.24562076
  entropy T*S    EENTRO =        -0.00272789
  eigenvalues    EBANDS =        10.88583447
  atomic energy  EATOM  =        53.53762400
  Solvation  Ediel_sol  =         0.00000000
  ---------------------------------------------------
  free energy    TOTEN  =        -3.73921621 eV

  energy without entropy =       -3.73648832  energy(sigma->0) =       -3.73853424


--------------------------------------------------------------------------------------------------------




 average (electrostatic) potential at core
  the test charge radii are     1.0406
  (the norm of the test charge is              1.0000)
       1 -71.8586



 E-fermi :   8.1971     XC(G=0): -10.1541     alpha+bet :-14.9121


 k-point     1 :       0.0000    0.0000    0.0000
  band No.  band energies     occupation 
      1      -3.1053      2.00000
      2      20.7943      0.00000
      3      21.4266      0.00000
      4      21.7599      0.00000
      5      23.4338      0.00000

 k-point     2 :       0.1000    0.0000    0.0000
  band No.  band energies     occupation 
      1      -2.8329      2.00000
      2      17.4548      0.00000
      3      20.0327      0.00000
      4      20.8321      0.00000
      5      22.9109      0.00000

 k-point     3 :       0.2000    0.0000    0.0000
  band No.  band energies     occupation 
      1      -2.0192      2.00000
      2      13.4162      0.00000
      3      19.2933      0.00000
      4      19.4107      0.00000
      5      22.8680      0.00000

 k-point     4 :       0.3000    0.0000    0.0000
  band No.  band energies     occupation 
      1      -0.6732      2.00000
      2       9.7007      0.00000
      3      18.9090      0.00000
      4      18.9671      0.00000
      5      22.0519      0.00000

 k-point     5 :       0.4000    0.0000    0.0000
  band No.  band energies     occupation 
      1       1.1900      2.00000
      2       6.4061      2.00000
      3      18.9977      0.00000
      4      19.0645      0.00000
      5      20.5671      0.00000

 k-point     6 :       0.5000    0.0000    0.0000
  band No.  band energies     occupation 
      1       3.4341      2.00000
      2       3.6909      2.00000
      3      19.5799      0.00000
      4      20.0678      0.00000
      5      22.7532      0.00000

 k-point     7 :       0.1000    0.1000    0.0000
  band No.  band energies     occupation 
      1      -2.7423      2.00000
      2      18.6228      0.00000
      3      18.6999      0.00000
      4      18.8804      0.00000
      5      21.5615      0.00000

 k-point     8 :       0.2000    0.1000    0.0000
  band No.  band energies     occupation 
      1      -2.1094      2.00000
      2      14.8881      0.00000
      3      17.6329      0.00000
      4      19.0334      0.00000
      5      21.6260      0.00000

 k-point     9 :       0.3000    0.1000    0.0000
  band No.  band energies     occupation 
      1      -0.9415      2.00000
      2      11.1033      0.00000
      3      17.1112      0.00000
      4      18.7209      0.00000
      5      19.7633      0.00000

 k-point    10 :       0.4000    0.1000    0.0000
  band No.  band energies     occupation 
      1       0.7484      2.00000
      2       7.6776      1.99697
      3      17.0392      0.00000
      4      17.7297      0.00000
      5      18.7602      0.00000

 k-point    11 :       0.5000    0.1000    0.0000
  band No.  band energies     occupation 
      1       2.9369      2.00000
      2       4.6944      2.00000
      3      16.5403      0.00000
      4      17.4407      0.00000
      5      19.1699      0.00000

 k-point    12 :      -0.4000    0.1000    0.0000
  band No.  band energies     occupation 
      1       2.1552      2.00000
      2       5.6334      2.00000
      3      15.8062      0.00000
      4      18.3157      0.00000
      5      20.6535      0.00000

 k-point    13 :      -0.3000    0.1000    0.0000
  band No.  band energies     occupation 
      1       0.1283      2.00000
      2       8.7657      0.00119
      3      15.5746      0.00000
      4      20.2605      0.00000
      5      21.4716      0.00000

 k-point    14 :      -0.2000    0.1000    0.0000
  band No.  band energies     occupation 
      1      -1.3896      2.00000
      2      12.2974      0.00000
      3      15.8287      0.00000
      4      21.1987      0.00000
      5      21.8809      0.00000

 k-point    15 :      -0.1000    0.1000    0.0000
  band No.  band energies     occupation 
      1      -2.3803      2.00000
      2      15.8273      0.00000
      3      16.9182      0.00000
      4      21.5117      0.00000
      5      22.6608      0.00000

 k-point    16 :       0.2000    0.2000    0.0000
  band No.  band energies     occupation 
      1      -1.6577      2.00000
      2      16.5109      0.00000
      3      16.5751      0.00000
      4      16.7240      0.00000
      5      19.8789      0.00000

 k-point    17 :       0.3000    0.2000    0.0000
  band No.  band energies     occupation 
      1      -0.6725      2.00000
      2      12.9116      0.00000
      3      16.0468      0.00000
      4      16.6819      0.00000
      5      17.2271      0.00000

 k-point    18 :       0.4000    0.2000    0.0000
  band No.  band energies     occupation 
      1       0.8372      2.00000
      2       9.4301      0.00000
      3      14.6863      0.00000
      4      15.5688      0.00000
      5      17.3404      0.00000

 k-point    19 :       0.5000    0.2000    0.0000
  band No.  band energies     occupation 
      1       2.8507      2.00000
      2       6.3128      2.00000
      3      13.2425      0.00000
      4      15.8205      0.00000
      5      17.5725      0.00000

 k-point    20 :      -0.4000    0.2000    0.0000
  band No.  band energies     occupation 
      1       3.6290      2.00000
      2       5.3679      2.00000
      3      12.3435      0.00000
      4      16.5570      0.00000
      5      18.5487      0.00000

 k-point    21 :      -0.3000    0.2000    0.0000
  band No.  band energies     occupation 
      1       1.4538      2.00000
      2       8.2784      0.24109
      3      11.9899      0.00000
      4      17.6661      0.00000
      5      19.6252      0.00000

 k-point    22 :      -0.2000    0.2000    0.0000
  band No.  band energies     occupation 
      1      -0.2274      2.00000
      2      11.1409      0.00000
      3      12.6382      0.00000
      4      19.3300      0.00000
      5      21.4639      0.00000

 k-point    23 :       0.3000    0.3000    0.0000
  band No.  band energies     occupation 
      1       0.1275      2.00000
      2      13.9956      0.00000
      3      14.8003      0.00000
      4      14.9840      0.00000
      5      17.7586      0.00000

 k-point    24 :       0.4000    0.3000    0.0000
  band No.  band energies     occupation 
      1       1.4502      2.00000
      2      11.4984      0.00000
      3      11.9601      0.00000
      4      14.5526      0.00000
      5      15.8450      0.00000

 k-point    25 :       0.5000    0.3000    0.0000
  band No.  band energies     occupation 
      1       3.2751      2.00000
      2       8.3954     -0.10256
      3      10.3503      0.00000
      4      14.6288      0.00000
      5      16.2126      0.00000

 k-point    26 :      -0.4000    0.3000    0.0000
  band No.  band energies     occupation 
      1       5.4329      2.00000
      2       5.7343      2.00000
      3       9.3036      0.00000
      4      15.1660      0.00000
      5      16.9494      0.00000

 k-point    27 :      -0.3000    0.3000    0.0000
  band No.  band energies     occupation 
      1       3.2883      2.00000
      2       7.7897      1.99015
      3       9.3033      0.00000
      4      16.1885      0.00000
      5      18.0416      0.00000

 k-point    28 :       0.4000    0.4000    0.0000
  band No.  band energies     occupation 
      1       2.5791      2.00000
      2       9.6208      0.00000
      3      13.6951      0.00000
      4      13.9851      0.00000
      5      14.0337      0.00000

 k-point    29 :       0.5000    0.4000    0.0000
  band No.  band energies     occupation 
      1       4.1825      2.00000
      2       7.8857      2.01418
      3      10.9227      0.00000
      4      13.9203      0.00000
      5      15.2780      0.00000

 k-point    30 :      -0.4000    0.4000    0.0000
  band No.  band energies     occupation 
      1       5.7893      2.00000
      2       7.0924      2.00000
      3       8.1623      1.35952
      4      14.3785      0.00000
      5      15.8826      0.00000

 k-point    31 :       0.5000    0.5000    0.0000
  band No.  band energies     occupation 
      1       5.1227      2.00000
      2       6.4514      2.00000
      3      13.3522      0.00000
      4      13.6763      0.00000
      5      13.6914      0.00000

 k-point    32 :       0.3000    0.2000    0.1000
  band No.  band energies     occupation 
      1      -1.2999      2.00000
      2      13.4847      0.00000
      3      14.7981      0.00000
      4      19.3269      0.00000
      5      20.1542      0.00000

 k-point    33 :       0.4000    0.2000    0.1000
  band No.  band energies     occupation 
      1       0.0395      2.00000
      2      10.3094      0.00000
      3      13.9277      0.00000
      4      17.1740      0.00000
      5      20.4689      0.00000

 k-point    34 :       0.5000    0.2000    0.1000
  band No.  band energies     occupation 
      1       1.8920      2.00000
      2       7.0693      2.00000
      3      13.9475      0.00000
      4      15.6355      0.00000
      5      20.8687      0.00000

 k-point    35 :      -0.4000    0.2000    0.1000
  band No.  band energies     occupation 
      1       4.1009      2.00000
      2       4.3926      2.00000
      3      14.3139      0.00000
      4      14.7691      0.00000
      5      21.2371      0.00000

 k-point    36 :       0.4000    0.3000    0.1000
  band No.  band energies     occupation 
      1       0.4825      2.00000
      2      11.8121      0.00000
      3      13.1595      0.00000
      4      14.4351      0.00000
      5      18.7001      0.00000

 k-point    37 :       0.5000    0.3000    0.1000
  band No.  band energies     occupation 
      1       2.1527      2.00000
      2       8.9501      0.00001
      3      12.3271      0.00000
      4      12.9206      0.00000
      5      19.4409      0.00000

 k-point    38 :      -0.4000    0.3000    0.1000
  band No.  band energies     occupation 
      1       4.3079      2.00000
      2       6.0495      2.00000
      3      11.3243      0.00000
      4      13.0581      0.00000
      5      20.3574      0.00000

 k-point    39 :      -0.3000    0.3000    0.1000
  band No.  band energies     occupation 
      1       3.5484      2.00000
      2       6.9365      2.00000
      3      11.0769      0.00000
      4      14.1200      0.00000
      5      22.7461      0.00000

 k-point    40 :      -0.2000    0.3000    0.1000
  band No.  band energies     occupation 
      1       1.5435      2.00000
      2       9.4683      0.00000
      3      11.0038      0.00000
      4      15.5943      0.00000
      5      22.1591      0.00000

 k-point    41 :       0.5000    0.4000    0.1000
  band No.  band energies     occupation 
      1       2.9272      2.00000
      2       9.9394      0.00000
      3      10.8052      0.00000
      4      12.2996      0.00000
      5      17.6185      0.00000

 k-point    42 :      -0.4000    0.4000    0.1000
  band No.  band energies     occupation 
      1       4.8664      2.00000
      2       8.1611      1.37183
      3       8.7047      0.00369
      4      12.0162      0.00000
      5      18.8506      0.00000

 k-point    43 :      -0.3000    0.4000    0.1000
  band No.  band energies     occupation 
      1       5.6696      2.00000
      2       6.7874      2.00000
      3       8.2643      0.34782
      4      12.7006      0.00000
      5      19.5452      0.00000

 k-point    44 :      -0.4000    0.5000    0.1000
  band No.  band energies     occupation 
      1       5.4537      2.00000
      2       6.7978      2.00000
      3      10.4680      0.00000
      4      11.9511      0.00000
      5      17.2081      0.00000

 k-point    45 :      -0.4000    0.4000    0.2000
  band No.  band energies     occupation 
      1       3.9674      2.00000
      2       8.4632     -0.05068
      3       9.8722      0.00000
      4      11.1647      0.00000
      5      22.4058      0.00000

 k-point    46 :      -0.3000    0.4000    0.2000
  band No.  band energies     occupation 
      1       6.0945      2.00000
      2       6.3676      2.00000
      3       9.6396      0.00000
      4      10.3742      0.00000
      5      23.2892      0.00000

 k-point    47 :      -0.3000    0.5000    0.2000
  band No.  band energies     occupation 
      1       6.4663      2.00000
      2       7.8105      1.99066
      3       8.1881      1.09488
      4       9.8011      0.00000
      5      22.4990      0.00000


--------------------------------------------------------------------------------------------------------


 soft charge-density along one line, spin component           1
         0         1         2         3         4         5         6         7         8         9
 total charge-density along one line

 pseudopotential strength for first ion, spin component:           1
  8.410  14.332  -0.000  -0.000  -0.000  -0.000  -0.000  -0.000
 14.332  24.425  -0.000  -0.000  -0.000  -0.000  -0.000  -0.000
 -0.000  -0.000   1.986   0.000  -0.000   5.721   0.000  -0.000
 -0.000  -0.000   0.000   1.986  -0.000   0.000   5.721  -0.000
 -0.000  -0.000  -0.000  -0.000   1.986  -0.000  -0.000   5.721
 -0.000  -0.000   5.721   0.000  -0.000  16.394   0.000  -0.000
 -0.000  -0.000   0.000   5.721  -0.000   0.000  16.394  -0.000
 -0.000  -0.000  -0.000  -0.000   5.721  -0.000  -0.000  16.394
 total augmentation occupancy for first ion, spin component:           1
  2.000   0.000   0.000   0.000   0.000   0.000   0.000   0.000
  0.000   0.000   0.000   0.000   0.000   0.000   0.000   0.000
  0.000   0.000   0.333   0.000   0.000   0.000   0.000   0.000
  0.000   0.000   0.000   0.333   0.000   0.000   0.000   0.000
  0.000   0.000   0.000   0.000   0.333   0.000   0.000   0.000
  0.000   0.000   0.000   0.000   0.000   0.000   0.000   0.000
  0.000   0.000   0.000   0.000   0.000   0.000   0.000   0.000
  0.000   0.000   0.000   0.000   0.000   0.000   0.000   0.000


----------------------------------------- Iteration    1(   3)  ---------------------------------------


     EDDAV:  cpu time    0.2017: real time    0.2019
       DOS:  cpu time    0.0017: real time    0.0017
    --------------------------------------------
      LOOP:  cpu time    0.2063: real time    0.2065

 eigenvalue-minimisations  :   590
 total energy-change (2. order) :-0.6099198E-02  (-0.5881611E-02)
 number of electron       3.0000000 magnetization 
 augmentation part        3.0000000 magnetization 

 Free energy of the ion-electron system (eV)
  ---------------------------------------------------
  alpha Z        PSCENC =        -0.20405276
  Ewald energy   TEWEN  =       -73.57448264
  -Hartree energ DENC   =        -0.10051023
  -exchange      EXHF   =         0.00000000
  -V(xc)+E(xc)   XCENC  =       -26.23543754
  PAW double counting   =        66.20015713      -34.24562076
  entropy T*S    EENTRO =        -0.00240072
  eigenvalues    EBANDS =        10.87940810
  atomic energy  EATOM  =        53.53762400
  Solvation  Ediel_sol  =         0.00000000
  ---------------------------------------------------
  free energy    TOTEN  =        -3.74531541 eV

  energy without entropy =       -3.74291468  energy(sigma->0) =       -3.74471523


--------------------------------------------------------------------------------------------------------




 average (electrostatic) potential at core
  the test charge radii are     1.0406
  (the norm of the test charge is              1.0000)
       1 -71.8586



 E-fermi :   8.1887     XC(G=0): -10.1541     alpha+bet :-14.9121


 k-point     1 :       0.0000    0.0000    0.0000
  band No.  band energies     occupation 
[...]
  alpha Z        PSCENC =        -0.20405276
  Ewald energy   TEWEN  =       -73.57448264
  -Hartree energ DENC   =        -0.10221418
  -exchange      EXHF   =         0.00000000
  -V(xc)+E(xc)   XCENC  =       -26.12689172
  PAW double counting   =       150.29153994     -118.35028070
  entropy T*S    EENTRO =        -0.00260687
  eigenvalues    EBANDS =        10.80912406
  atomic energy  EATOM  =        53.53762400
  Solvation  Ediel_sol  =         0.00000000
  ---------------------------------------------------
  free energy    TOTEN  =        -3.72224088 eV

  energy without entropy =       -3.71963401  energy(sigma->0) =       -3.72158916


--------------------------------------------------------------------------------------------------------




 average (electrostatic) potential at core
  the test charge radii are     1.0406
  (the norm of the test charge is              1.0000)
       1 -72.6046



 E-fermi :   8.1657     XC(G=0): -10.2059     alpha+bet :-14.9121


 k-point     1 :       0.0000    0.0000    0.0000
  band No.  band energies     occupation 
      1      -3.1257      2.00000
      2      20.6969      0.00000
      3      20.6969      0.00000
      4      20.6969      0.00000
      5      22.1682      0.00000

 k-point     2 :       0.1000    0.0000    0.0000
  band No.  band energies     occupation 
      1      -2.8535      2.00000
      2      17.3858      0.00000
      3      19.9632      0.00000
      4      19.9632      0.00000
      5      22.8298      0.00000

 k-point     3 :       0.2000    0.0000    0.0000
  band No.  band energies     occupation 
      1      -2.0403      2.00000
      2      13.3716      0.00000
      3      19.1969      0.00000
      4      19.1969      0.00000
      5      22.5398      0.00000

 k-point     4 :       0.3000    0.0000    0.0000
  band No.  band energies     occupation 
      1      -0.6950      2.00000
      2       9.6700      0.00000
      3      18.8443      0.00000
      4      18.8443      0.00000
      5      21.9629      0.00000

 k-point     5 :       0.4000    0.0000    0.0000
  band No.  band energies     occupation 
      1       1.1676      2.00000
      2       6.3781      2.00000
      3      18.9392      0.00000
      4      18.9392      0.00000
      5      20.5070      0.00000

 k-point     6 :       0.5000    0.0000    0.0000
  band No.  band energies     occupation 
      1       3.4239      2.00000
      2       3.6444      2.00000
      3      19.4607      0.00000
      4      19.4609      0.00000
      5      19.5355      0.00000

 k-point     7 :       0.1000    0.1000    0.0000
  band No.  band energies     occupation 
      1      -2.7629      2.00000
      2      18.5573      0.00000
      3      18.5573      0.00000
      4      18.8405      0.00000
      5      21.3773      0.00000

 k-point     8 :       0.2000    0.1000    0.0000
  band No.  band energies     occupation 
      1      -2.1304      2.00000
      2      14.8465      0.00000
      3      17.5722      0.00000
      4      18.9825      0.00000
      5      21.4089      0.00000

 k-point     9 :       0.3000    0.1000    0.0000
  band No.  band energies     occupation 
      1      -0.9632      2.00000
      2      11.0662      0.00000
      3      17.0448      0.00000
      4      18.6481      0.00000
      5      19.3806      0.00000

 k-point    10 :       0.4000    0.1000    0.0000
  band No.  band energies     occupation 
      1       0.7260      2.00000
      2       7.6473      1.99691
      3      16.9790      0.00000
      4      17.6859      0.00000
      5      18.6654      0.00000

 k-point    11 :       0.5000    0.1000    0.0000
  band No.  band energies     occupation 
      1       2.9154      2.00000
      2       4.6655      2.00000
      3      16.4869      0.00000
      4      17.3759      0.00000
      5      19.1080      0.00000

 k-point    12 :      -0.4000    0.1000    0.0000
  band No.  band energies     occupation 
      1       2.1328      2.00000
      2       5.6056      2.00000
      3      15.7611      0.00000
      4      18.2373      0.00000
      5      20.0269      0.00000

 k-point    13 :      -0.3000    0.1000    0.0000
  band No.  band energies     occupation 
      1       0.1062      2.00000
      2       8.7355      0.00116
      3      15.5205      0.00000
      4      19.5503      0.00000
      5      21.1373      0.00000

 k-point    14 :      -0.2000    0.1000    0.0000
  band No.  band energies     occupation 
      1      -1.4110      2.00000
      2      12.2633      0.00000
      3      15.7849      0.00000
      4      21.1059      0.00000
      5      21.4951      0.00000

 k-point    15 :      -0.1000    0.1000    0.0000
  band No.  band energies     occupation 
      1      -2.4011      2.00000
      2      15.7769      0.00000
      3      16.8669      0.00000
      4      21.4074      0.00000
      5      22.4953      0.00000

 k-point    16 :       0.2000    0.2000    0.0000
  band No.  band energies     occupation 
      1      -1.6803      2.00000
      2      16.4132      0.00000
      3      16.4132      0.00000
      4      16.4941      0.00000
      5      18.8040      0.00000

 k-point    17 :       0.3000    0.2000    0.0000
  band No.  band energies     occupation 
      1      -0.6952      2.00000
      2      12.8700      0.00000
      3      15.7202      0.00000
      4      16.4463      0.00000
      5      17.1596      0.00000

 k-point    18 :       0.4000    0.2000    0.0000
  band No.  band energies     occupation 
      1       0.8136      2.00000
      2       9.3875      0.00000
      3      14.5913      0.00000
      4      15.4936      0.00000
      5      17.1699      0.00000

 k-point    19 :       0.5000    0.2000    0.0000
  band No.  band energies     occupation 
      1       2.8269      2.00000
      2       6.2840      2.00000
      3      13.2004      0.00000
      4      15.7330      0.00000
      5      17.5033      0.00000

 k-point    20 :      -0.4000    0.2000    0.0000
  band No.  band energies     occupation 
      1       3.6074      2.00000
      2       5.3386      2.00000
      3      12.3072      0.00000
      4      16.4382      0.00000
      5      18.3026      0.00000

 k-point    21 :      -0.3000    0.2000    0.0000
  band No.  band energies     occupation 
      1       1.4311      2.00000
      2       8.2497      0.22287
      3      11.9554      0.00000
      4      17.6081      0.00000
      5      19.5713      0.00000

 k-point    22 :      -0.2000    0.2000    0.0000
  band No.  band energies     occupation 
      1      -0.2496      2.00000
      2      11.1059      0.00000
      3      12.5992      0.00000
      4      19.2353      0.00000
      5      21.2663      0.00000

 k-point    23 :       0.3000    0.3000    0.0000
  band No.  band energies     occupation 
      1       0.1054      2.00000
      2      13.9292      0.00000
      3      14.7296      0.00000
      4      14.8665      0.00000
      5      14.8665      0.00000

 k-point    24 :       0.4000    0.3000    0.0000
  band No.  band energies     occupation 
      1       1.4276      2.00000
      2      11.4761      0.00000
      3      11.9218      0.00000
      4      14.4820      0.00000
      5      15.7952      0.00000

 k-point    25 :       0.5000    0.3000    0.0000
  band No.  band energies     occupation 
      1       3.2511      2.00000
      2       8.3606     -0.10309
      3      10.3092      0.00000
      4      14.5635      0.00000
      5      16.1666      0.00000

 k-point    26 :      -0.4000    0.3000    0.0000
  band No.  band energies     occupation 
      1       5.4233      2.00000
      2       5.6934      2.00000
      3       9.2714      0.00000
      4      15.1114      0.00000
      5      16.8497      0.00000

 k-point    27 :      -0.3000    0.3000    0.0000
  band No.  band energies     occupation 
      1       3.2634      2.00000
      2       7.7620      1.99013
      3       9.2655      0.00000
      4      16.1257      0.00000
      5      17.9939      0.00000

 k-point    28 :       0.4000    0.4000    0.0000
  band No.  band energies     occupation 
      1       2.5561      2.00000
      2       9.5961      0.00000
      3      13.6639      0.00000
      4      13.9402      0.00000
      5      13.9402      0.00000

 k-point    29 :       0.5000    0.4000    0.0000
  band No.  band energies     occupation 
      1       4.1577      2.00000
      2       7.8620      2.01918
      3      10.8851      0.00000
      4      13.8643      0.00000
      5      15.1116      0.00000

 k-point    30 :      -0.4000    0.4000    0.0000
  band No.  band energies     occupation 
      1       5.7610      2.00000
      2       7.0800      2.00000
      3       8.1156      1.50495
      4      14.2538      0.00000
      5      15.8223      0.00000

 k-point    31 :       0.5000    0.5000    0.0000
  band No.  band energies     occupation 
      1       5.0960      2.00000
      2       6.4285      2.00000
      3      13.3070      0.00000
      4      13.6317      0.00000
      5      13.6317      0.00000

 k-point    32 :       0.3000    0.2000    0.1000
  band No.  band energies     occupation 
      1      -1.3213      2.00000
      2      13.4498      0.00000
      3      14.7530      0.00000
      4      19.0973      0.00000
      5      20.0586      0.00000

 k-point    33 :       0.4000    0.2000    0.1000
  band No.  band energies     occupation 
      1       0.0172      2.00000
      2      10.2638      0.00000
      3      13.8862      0.00000
      4      17.1112      0.00000
      5      20.3834      0.00000

 k-point    34 :       0.5000    0.2000    0.1000
  band No.  band energies     occupation 
      1       1.8694      2.00000
      2       7.0405      2.00000
      3      13.9129      0.00000
      4      15.5855      0.00000
      5      20.5787      0.00000

 k-point    35 :      -0.4000    0.2000    0.1000
  band No.  band energies     occupation 
      1       4.0953      2.00000
      2       4.3480      2.00000
      3      14.2974      0.00000
      4      14.7055      0.00000
      5      21.0121      0.00000

 k-point    36 :       0.4000    0.3000    0.1000
  band No.  band energies     occupation 
      1       0.4599      2.00000
      2      11.7787      0.00000
      3      13.1098      0.00000
      4      14.3416      0.00000
      5      18.4743      0.00000

 k-point    37 :       0.5000    0.3000    0.1000
  band No.  band energies     occupation 
      1       2.1291      2.00000
      2       8.9148      0.00001
      3      12.3110      0.00000
      4      12.8456      0.00000
      5      19.1751      0.00000

 k-point    38 :      -0.4000    0.3000    0.1000
  band No.  band energies     occupation 
      1       4.2830      2.00000
      2       6.0204      2.00000
      3      11.2815      0.00000
      4      13.0040      0.00000
      5      19.7227      0.00000

 k-point    39 :      -0.3000    0.3000    0.1000
  band No.  band energies     occupation 
      1       3.5209      2.00000
      2       6.8966      2.00000
      3      10.6108      0.00000
      4      13.8794      0.00000
      5      20.6495      0.00000

 k-point    40 :      -0.2000    0.3000    0.1000
  band No.  band energies     occupation 
      1       1.5184      2.00000
      2       9.4337      0.00000
      3      10.9440      0.00000
      4      15.2611      0.00000
      5      21.9690      0.00000

 k-point    41 :       0.5000    0.4000    0.1000
  band No.  band energies     occupation 
      1       2.9040      2.00000
      2       9.9116      0.00000
      3      10.7745      0.00000
      4      12.2484      0.00000
      5      17.4935      0.00000

 k-point    42 :      -0.4000    0.4000    0.1000
  band No.  band energies     occupation 
      1       4.8407      2.00000
      2       8.1479      1.18760
      3       8.6586      0.00461
      4      11.9717      0.00000
      5      18.5347      0.00000

 k-point    43 :      -0.3000    0.4000    0.1000
  band No.  band energies     occupation 
      1       5.6485      2.00000
      2       6.7607      2.00000
      3       8.2303      0.36912
      4      12.6574      0.00000
      5      19.4136      0.00000

 k-point    44 :      -0.4000    0.5000    0.1000
  band No.  band energies     occupation 
      1       5.4284      2.00000
      2       6.7761      2.00000
      3      10.4395      0.00000
      4      11.9046      0.00000
      5      17.1649      0.00000

 k-point    45 :      -0.4000    0.4000    0.2000
  band No.  band energies     occupation 
      1       3.9427      2.00000
      2       8.4307     -0.05172
      3       9.8424      0.00000
      4      11.1022      0.00000
      5      21.8224      0.00000

 k-point    46 :      -0.3000    0.4000    0.2000
  band No.  band energies     occupation 
      1       6.0833      2.00000
      2       6.3284      2.00000
      3       9.6290      0.00000
      4      10.3042      0.00000
      5      22.8067      0.00000

 k-point    47 :      -0.3000    0.5000    0.2000
  band No.  band energies     occupation 
      1       6.4272      2.00000
      2       7.7636      1.99014
      3       8.0962      1.67033
      4       9.7325      0.00000
      5      21.5016      0.00000


--------------------------------------------------------------------------------------------------------


 soft charge-density along one line, spin component           1
         0         1         2         3         4         5         6         7         8         9
 total charge-density along one line

 pseudopotential strength for first ion, spin component:           1
  8.444  14.390  -0.000  -0.000   0.000  -0.000  -0.000   0.000
 14.390  24.526  -0.000  -0.000   0.000  -0.000  -0.000   0.000
 -0.000  -0.000   1.988   0.000  -0.000   5.731   0.000  -0.000
 -0.000  -0.000   0.000   1.988  -0.000   0.000   5.731  -0.000
  0.000   0.000  -0.000  -0.000   1.988  -0.000  -0.000   5.731
 -0.000  -0.000   5.731   0.000  -0.000  16.437   0.000  -0.000
 -0.000  -0.000   0.000   5.731  -0.000   0.000  16.437  -0.000
  0.000   0.000  -0.000  -0.000   5.731  -0.000  -0.000  16.437
 total augmentation occupancy for first ion, spin component:           1
  3.434  -0.859   0.000   0.000   0.000   0.000   0.000   0.000
 -0.859   0.281   0.000   0.000   0.000   0.000   0.000   0.000
  0.000   0.000   1.191  -0.000  -0.000  -0.090   0.000  -0.000
  0.000   0.000  -0.000   1.191   0.000   0.000  -0.090  -0.000
  0.000   0.000  -0.000   0.000   1.191  -0.000  -0.000  -0.090
  0.000   0.000  -0.090   0.000  -0.000   0.007  -0.000   0.000
  0.000   0.000   0.000  -0.090  -0.000  -0.000   0.007   0.000
  0.000   0.000  -0.000  -0.000  -0.090  -0.000   0.000   0.007


------------------------ aborting loop because EDIFF is reached ----------------------------------------


    CHARGE:  cpu time    0.0126: real time    0.0126
    FORLOC:  cpu time    0.0009: real time    0.0009
    FORNL :  cpu time    0.0139: real time    0.0139
    STRESS:  cpu time    0.0696: real time    0.0697
    FORCOR:  cpu time    0.0267: real time    0.0267
    FORHAR:  cpu time    0.0061: real time    0.0061
    MIXING:  cpu time    0.0009: real time    0.0009
    OFIELD:  cpu time    0.0000: real time    0.0000

  FORCE on cell =-STRESS in cart. coord.  units (eV):
  Direction    XX          YY          ZZ          XY          YZ          ZX
  --------------------------------------------------------------------------------------
  Alpha Z    -0.20405    -0.20405    -0.20405
  Ewald     -24.52483   -24.52483   -24.52483    -0.00000    -0.00000     0.00000
  Hartree     0.03407     0.03407     0.03407    -0.00000     0.00000    -0.00000
  E(xc)      -8.57177    -8.57177    -8.57177    -0.00000     0.00000    -0.00000
  Local       0.35919     0.35919     0.35919     0.00000    -0.00000     0.00000
  n-local    18.69206    19.00607    18.93986    -0.45004     0.51875     0.57757
  augment    -1.01361    -1.01361    -1.01361    -0.00000     0.00000    -0.00000
  Kinetic    10.91934    11.96176    22.22892     9.28542    -5.98232    -8.10821
  Fock        0.00000     0.00000     0.00000     0.00000     0.00000     0.00000
  -------------------------------------------------------------------------------------
  Total      -0.00499    -0.00499    -0.00499    -0.00000    -0.00000     0.00000
  in kB      -0.48607    -0.48607    -0.48607    -0.00000    -0.00000     0.00000
  external pressure =       -0.49 kB  Pullay stress =        0.00 kB


 VOLUME and BASIS-vectors are now :
 -----------------------------------------------------------------------------
  energy-cutoff  :      300.00
  volume of cell :       16.46
      direct lattice vectors                 reciprocal lattice vectors
    -2.019006186 -0.000000000  2.019006186    -0.247646591 -0.247646591  0.247646591
     0.000000000  2.019006186  2.019006186     0.247646591  0.247646591  0.247646591
    -2.019006186  2.019006186 -0.000000000    -0.247646591  0.247646591 -0.247646591

  length of vectors
     2.855305931  2.855305931  2.855305931     0.428936479  0.428936479  0.428936479


 FORCES acting on ions
    electron-ion (+dipol)            ewald-force                    non-local-force                 convergence-correction
 -----------------------------------------------------------------------------------------------
   0.000E+00 0.000E+00 0.000E+00   0.125E-15 0.327E-17 -.576E-17   0.000E+00 -.323E-25 0.243E-25   0.000E+00 0.000E+00 0.000E+00
 -----------------------------------------------------------------------------------------------
   0.000E+00 0.000E+00 0.000E+00   0.125E-15 0.327E-17 -.576E-17   0.000E+00 -.323E-25 0.243E-25   0.000E+00 0.000E+00 0.000E+00


 POSITION                                       TOTAL-FORCE (eV/Angst)
 -----------------------------------------------------------------------------------
      0.00000      0.00000      0.00000        -0.000000      0.000000      0.000000
 -----------------------------------------------------------------------------------
    total drift:                                0.000000      0.000000     -0.000000


--------------------------------------------------------------------------------------------------------



  FREE ENERGIE OF THE ION-ELECTRON SYSTEM (eV)
  ---------------------------------------------------
  free  energy   TOTEN  =        -3.72224088 eV

  energy  without entropy=       -3.71963401  energy(sigma->0) =       -3.72158916



--------------------------------------------------------------------------------------------------------


    POTLOK:  cpu time    0.0246: real time    0.0246


--------------------------------------------------------------------------------------------------------


 writing wavefunctions
     LOOP+:  cpu time    3.0302: real time    3.0359
    4ORBIT:  cpu time    0.0000: real time    0.0005

 total amount of memory used by VASP on root node    34406. kBytes
========================================================================

   base      :      30000. kBytes
   nonl-proj :        616. kBytes
   fftplans  :       1184. kBytes
   grid      :       1806. kBytes
   one-center:          3. kBytes
   wavefun   :        797. kBytes

  
  
 General timing and accounting informations for this job:
 ========================================================
  
                  Total CPU time used (sec):        3.413
                            User time (sec):        3.389
                          System time (sec):        0.024
                         Elapsed time (sec):        3.478
  
                   Maximum memory used (kb):       20012.
                   Average memory used (kb):           0.
  
                          Minor page faults:         5444
                          Major page faults:          121
                 Voluntary context switches:          220
