<?xml version="1.0" encoding="ISO-8859-1"?>
<modeling>
 <generator>
  <i name="program" type="string">vasp </i>
  <i name="version" type="string">5.4.1  </i>
  <i name="subversion" type="string">24Jun15 (build Mar  6 2017 20:45:23) complex                          parallel </i>
  <i name="platform" type="string">IFC91_ompi </i>
  <i name="date" type="string">2017 10 28 </i>
  <i name="time" type="string">19:27:53 </i>
 </generator>
 <incar>
  <i type="string" name="PREC">accurate</i>
  <i type="string" name="ALGO"> Normal</i>
  <i type="int" name="ISPIN">     1</i>
  <i type="int" name="ICHARG">     1</i>
  <i type="int" name="NELM">   100</i>
  <i type="int" name="IBRION">    -1</i>
  <i name="EDIFF">      0.00000001</i>
  <i type="int" name="NSW">     0</i>
  <i type="int" name="ISIF">     3</i>
  <i name="ENCUT">    300.00000000</i>
  <i type="logical" name="LREAL"> F  </i>
  <i type="int" name="ISMEAR">     2</i>
  <i name="SIGMA">      0.20000000</i>
  <i type="int" name="NWRITE">     3</i>
  <i type="logical" name="LWAVE"> T  </i>
  <i type="logical" name="LVTOT"> T  </i>
  <i type="logical" name="LVHAR"> F  </i>
  <v type="int" name="KPOINT_BSE">    -1     0     0     0</v>
  <i type="int" name="NELM">   100</i>
 </incar>
 <kpoints>
  <generation param="Gamma">
   <v type="int" name="divisions">      10       10       10 </v>
   <v name="usershift">      0.00000000       0.00000000       0.00000000 </v>
   <v name="genvec1">      0.10000000       0.00000000      -0.00000000 </v>
   <v name="genvec2">      0.00000000       0.10000000      -0.00000000 </v>
   <v name="genvec3">      0.00000000       0.00000000       0.10000000 </v>
   <v name="shift">      0.00000000       0.00000000       0.00000000 </v>
  </generation>
  <varray name="kpointlist" >
   <v>       0.00000000       0.00000000       0.00000000 </v>
   <v>       0.10000000       0.00000000       0.00000000 </v>
   <v>       0.20000000       0.00000000       0.00000000 </v>
   <v>       0.30000000       0.00000000       0.00000000 </v>
   <v>       0.40000000       0.00000000       0.00000000 </v>
   <v>       0.50000000       0.00000000       0.00000000 </v>
   <v>       0.10000000       0.10000000       0.00000000 </v>
   <v>       0.20000000       0.10000000       0.00000000 </v>
   <v>       0.30000000       0.10000000       0.00000000 </v>
   <v>       0.40000000       0.10000000       0.00000000 </v>
   <v>       0.50000000       0.10000000       0.00000000 </v>
   <v>      -0.40000000       0.10000000       0.00000000 </v>
   <v>      -0.30000000       0.10000000       0.00000000 </v>
   <v>      -0.20000000       0.10000000       0.00000000 </v>
   <v>      -0.10000000       0.10000000       0.00000000 </v>
   <v>       0.20000000       0.20000000       0.00000000 </v>
   <v>       0.30000000       0.20000000       0.00000000 </v>
   <v>       0.40000000       0.20000000       0.00000000 </v>
   <v>       0.50000000       0.20000000       0.00000000 </v>
   <v>      -0.40000000       0.20000000       0.00000000 </v>
   <v>      -0.30000000       0.20000000       0.00000000 </v>
   <v>      -0.20000000       0.20000000       0.00000000 </v>
   <v>       0.30000000       0.30000000       0.00000000 </v>
   <v>       0.40000000       0.30000000       0.00000000 </v>
   <v>       0.50000000       0.30000000       0.00000000 </v>
   <v>      -0.40000000       0.30000000       0.00000000 </v>
   <v>      -0.30000000       0.30000000       0.00000000 </v>
   <v>       0.40000000       0.40000000       0.00000000 </v>
   <v>       0.50000000       0.40000000       0.00000000 </v>
   <v>      -0.40000000       0.40000000       0.00000000 </v>
   <v>       0.50000000       0.50000000       0.00000000 </v>
   <v>       0.30000000       0.20000000       0.10000000 </v>
   <v>       0.40000000       0.20000000       0.10000000 </v>
   <v>       0.50000000       0.20000000       0.10000000 </v>
   <v>      -0.40000000       0.20000000       0.10000000 </v>
   <v>       0.40000000       0.30000000       0.10000000 </v>
   <v>       0.50000000       0.30000000       0.10000000 </v>
   <v>      -0.40000000       0.30000000       0.10000000 </v>
   <v>      -0.30000000       0.30000000       0.10000000 </v>
   <v>      -0.20000000       0.30000000       0.10000000 </v>
   <v>       0.50000000       0.40000000       0.10000000 </v>
   <v>      -0.40000000       0.40000000       0.10000000 </v>
   <v>      -0.30000000       0.40000000       0.10000000 </v>
   <v>      -0.40000000       0.50000000       0.10000000 </v>
   <v>      -0.40000000       0.40000000       0.20000000 </v>
   <v>      -0.30000000       0.40000000       0.20000000 </v>
   <v>      -0.30000000       0.50000000       0.20000000 </v>
  </varray>
  <varray name="weights" >
   <v>       0.00100000 </v>
   <v>       0.00800000 </v>
   <v>       0.00800000 </v>
   <v>       0.00800000 </v>
   <v>       0.00800000 </v>
   <v>       0.00400000 </v>
   <v>       0.00600000 </v>
   <v>       0.02400000 </v>
   <v>       0.02400000 </v>
   <v>       0.02400000 </v>
   <v>       0.02400000 </v>
   <v>       0.02400000 </v>
   <v>       0.02400000 </v>
   <v>       0.02400000 </v>
   <v>       0.01200000 </v>
   <v>       0.00600000 </v>
   <v>       0.02400000 </v>
   <v>       0.02400000 </v>
   <v>       0.02400000 </v>
   <v>       0.02400000 </v>
   <v>       0.02400000 </v>
   <v>       0.01200000 </v>
   <v>       0.00600000 </v>
   <v>       0.02400000 </v>
   <v>       0.02400000 </v>
   <v>       0.02400000 </v>
   <v>       0.01200000 </v>
   <v>       0.00600000 </v>
   <v>       0.02400000 </v>
   <v>       0.01200000 </v>
   <v>       0.00300000 </v>
   <v>       0.02400000 </v>
   <v>       0.04800000 </v>
   <v>       0.04800000 </v>
   <v>       0.02400000 </v>
   <v>       0.02400000 </v>
   <v>       0.04800000 </v>
   <v>       0.04800000 </v>
   <v>       0.04800000 </v>
   <v>       0.02400000 </v>
   <v>       0.02400000 </v>
   <v>       0.04800000 </v>
   <v>       0.02400000 </v>
   <v>       0.01200000 </v>
   <v>       0.02400000 </v>
   <v>       0.02400000 </v>
   <v>       0.01200000 </v>
  </varray>
 </kpoints>
 <parameters>
  <separator name="general" >
   <i type="string" name="SYSTEM">unknown system</i>
   <i type="logical" name="LCOMPAT"> F  </i>
  </separator>
  <separator name="electronic" >
   <i type="string" name="PREC">accura</i>
   <i name="ENMAX">    300.00000000</i>
   <i name="ENAUG">    291.05200000</i>
   <i name="EDIFF">      0.00000001</i>
   <i type="int" name="IALGO">    38</i>
   <i type="int" name="IWAVPR">    10</i>
   <i type="int" name="NBANDS">     5</i>
   <i name="NELECT">      3.00000000</i>
   <i type="int" name="TURBO">     0</i>
   <i type="int" name="IRESTART">     0</i>
   <i type="int" name="NREBOOT">     0</i>
   <i type="int" name="NMIN">     0</i>
   <i name="EREF">      0.00000000</i>
   <separator name="electronic smearing" >
    <i type="int" name="ISMEAR">     2</i>
    <i name="SIGMA">      0.20000000</i>
    <i name="KSPACING">      0.50000000</i>
    <i type="logical" name="KGAMMA"> T  </i>
   </separator>
   <separator name="electronic projectors" >
    <i type="logical" name="LREAL"> F  </i>
    <v name="ROPT">      0.00000000</v>
    <i type="int" name="LMAXPAW">  -100</i>
    <i type="int" name="LMAXMIX">     2</i>
    <i type="logical" name="NLSPLINE"> F  </i>
   </separator>
   <separator name="electronic startup" >
    <i type="int" name="ISTART">     0</i>
    <i type="int" name="ICHARG">     1</i>
    <i type="int" name="INIWAV">     1</i>
   </separator>
   <separator name="electronic spin" >
    <i type="int" name="ISPIN">     1</i>
    <i type="logical" name="LNONCOLLINEAR"> F  </i>
    <v name="MAGMOM">      1.00000000</v>
    <i name="NUPDOWN">     -1.00000000</i>
    <i type="logical" name="LSORBIT"> F  </i>
    <v name="SAXIS">      0.00000000      0.00000000      1.00000000</v>
    <i type="logical" name="LSPIRAL"> F  </i>
    <v name="QSPIRAL">      0.00000000      0.00000000      0.00000000</v>
    <i type="logical" name="LZEROZ"> F  </i>
   </separator>
   <separator name="electronic exchange-correlation" >
    <i type="logical" name="LASPH"> F  </i>
    <i type="logical" name="LMETAGGA"> F  </i>
   </separator>
   <separator name="electronic convergence" >
    <i type="int" name="NELM">   100</i>
    <i type="int" name="NELMDL">    -5</i>
    <i type="int" name="NELMIN">     2</i>
    <i name="ENINI">    300.00000000</i>
    <separator name="electronic convergence detail" >
     <i type="logical" name="LDIAG"> T  </i>
     <i type="logical" name="LSUBROT"> F  </i>
     <i name="WEIMIN">      0.00000000</i>
     <i name="EBREAK">      0.00000000</i>
     <i name="DEPER">      0.30000000</i>
     <i type="int" name="NRMM">     4</i>
     <i name="TIME">      0.40000000</i>
    </separator>
   </separator>
   <separator name="electronic mixer" >
    <i name="AMIX">      0.40000000</i>
    <i name="BMIX">      1.00000000</i>
    <i name="AMIN">      0.10000000</i>
    <i name="AMIX_MAG">      1.60000000</i>
    <i name="BMIX_MAG">      1.00000000</i>
    <separator name="electronic mixer details" >
     <i type="int" name="IMIX">     4</i>
     <i type="logical" name="MIXFIRST"> F  </i>
     <i type="int" name="MAXMIX">   -45</i>
     <i name="WC">    100.00000000</i>
     <i type="int" name="INIMIX">     1</i>
     <i type="int" name="MIXPRE">     1</i>
     <i type="int" name="MREMOVE">     5</i>
    </separator>
   </separator>
   <separator name="electronic dipolcorrection" >
    <i type="logical" name="LDIPOL"> F  </i>
    <i type="logical" name="LMONO"> F  </i>
    <i type="int" name="IDIPOL">     0</i>
    <i name="EPSILON">      1.00000000</i>
    <v name="DIPOL">   -100.00000000   -100.00000000   -100.00000000</v>
    <i name="EFIELD">      0.00000000</i>
   </separator>
  </separator>
  <separator name="grids" >
   <i type="int" name="NGX">    16</i>
   <i type="int" name="NGY">    16</i>
   <i type="int" name="NGZ">    16</i>
   <i type="int" name="NGXF">    32</i>
   <i type="int" name="NGYF">    32</i>
   <i type="int" name="NGZF">    32</i>
   <i type="logical" name="ADDGRID"> F  </i>
  </separator>
  <separator name="ionic" >
   <i type="int" name="NSW">     0</i>
   <i type="int" name="IBRION">    -1</i>
   <i type="int" name="ISIF">     3</i>
   <i name="PSTRESS">      0.00000000</i>
   <i name="EDIFFG">      0.00000010</i>
   <i type="int" name="NFREE">     0</i>
   <i name="POTIM">      0.50000000</i>
   <i name="SMASS">     -3.00000000</i>
   <i name="SCALEE">      1.00000000</i>
  </separator>
  <separator name="ionic md" >
   <i name="TEBEG">      0.00010000</i>
   <i name="TEEND">      0.00010000</i>
   <i type="int" name="NBLOCK">     1</i>
   <i type="int" name="KBLOCK">     1</i>
   <i type="int" name="NPACO">   256</i>
   <i name="APACO">     16.00000000</i>
  </separator>
  <separator name="symmetry" >
   <i type="int" name="ISYM">     2</i>
   <i name="SYMPREC">      0.00001000</i>
  </separator>
  <separator name="dos" >
   <i type="logical" name="LORBIT"> T  </i>
   <v name="RWIGS">     -1.00000000</v>
   <i type="int" name="NEDOS">   301</i>
   <i name="EMIN">     10.00000000</i>
   <i name="EMAX">    -10.00000000</i>
   <i name="EFERMI">      0.00000000</i>
  </separator>
  <separator name="writing" >
   <i type="int" name="NWRITE">     3</i>
   <i type="logical" name="LWAVE"> T  </i>
   <i type="logical" name="LCHARG"> T  </i>
   <i type="logical" name="LPARD"> F  </i>
   <i type="logical" name="LVTOT"> T  </i>
   <i type="logical" name="LVHAR"> F  </i>
   <i type="logical" name="LELF"> F  </i>
   <i type="logical" name="LOPTICS"> F  </i>
   <v name="STM">      0.00000000      0.00000000      0.00000000      0.00000000      0.00000000      0.00000000      0.00000000</v>
  </separator>
  <separator name="performance" >
   <i type="int" name="NPAR">     1</i>
   <i type="int" name="NSIM">     4</i>
   <i type="int" name="NBLK">    -1</i>
   <i type="logical" name="LPLANE"> T  </i>
   <i type="logical" name="LSCALAPACK"> T  </i>
   <i type="logical" name="LSCAAWARE"> F  </i>
   <i type="logical" name="LSCALU"> F  </i>
   <i type="logical" name="LASYNC"> F  </i>
   <i type="logical" name="LORBITALREAL"> F  </i>
  </separator>
  <separator name="miscellaneous" >
   <i type="int" name="IDIOT">     3</i>
   <i type="logical" name="LMUSIC"> F  </i>
   <v name="POMASS">     26.98100000</v>
   <v name="DARWINR">      0.00000000</v>
   <v name="DARWINV">      1.00000000</v>
   <i type="logical" name="LCORR"> T  </i>
  </separator>
  <i type="logical" name="GGA_COMPAT"> T  </i>
  <i type="logical" name="LBERRY"> F  </i>
  <i type="int" name="ICORELEVEL">     0</i>
  <i type="logical" name="LDAU"> F  </i>
  <i type="int" name="I_CONSTRAINED_M">     0</i>
  <separator name="electronic exchange-correlation" >
   <i type="string" name="GGA">--</i>
   <i type="int" name="VOSKOWN">     0</i>
   <i type="logical" name="LHFCALC"> F  </i>
   <i type="string" name="PRECFOCK"></i>
   <i type="logical" name="LSYMGRAD"> F  </i>
   <i type="logical" name="LHFONE"> F  </i>
   <i type="logical" name="LRHFCALC"> F  </i>
   <i type="logical" name="LTHOMAS"> F  </i>
   <i type="logical" name="LMODELHF"> F  </i>
   <i name="ENCUT4O">     -1.00000000</i>
   <i type="int" name="EXXOEP">     0</i>
   <i type="int" name="FOURORBIT">     0</i>
   <i name="AEXX">      0.00000000</i>
   <i name="HFALPHA">      0.00000000</i>
   <i name="MCALPHA">      0.00000000</i>
   <i name="ALDAX">      1.00000000</i>
   <i name="AGGAX">      1.00000000</i>
   <i name="ALDAC">      1.00000000</i>
   <i name="AGGAC">      1.00000000</i>
   <i type="int" name="NKREDX">     1</i>
   <i type="int" name="NKREDY">     1</i>
   <i type="int" name="NKREDZ">     1</i>
   <i type="logical" name="SHIFTRED"> F  </i>
   <i type="logical" name="ODDONLY"> F  </i>
   <i type="logical" name="EVENONLY"> F  </i>
   <i type="int" name="LMAXFOCK">     0</i>
   <i type="int" name="NMAXFOCKAE">     0</i>
   <i type="logical" name="LFOCKAEDFT"> F  </i>
   <i name="HFSCREEN">      0.00000000</i>
   <i name="HFSCREENC">      0.00000000</i>
   <i type="int" name="NBANDSGWLOW">     0</i>
  </separator>
  <separator name="vdW DFT" >
   <i type="logical" name="LUSE_VDW"> F  </i>
   <i name="Zab_VDW">     -0.84910000</i>
   <i name="PARAM1">      0.12340000</i>
   <i name="PARAM2">      1.00000000</i>
   <i name="PARAM3">      0.00000000</i>
  </separator>
  <separator name="model GW" >
   <i type="int" name="MODEL_GW">     0</i>
   <i name="MODEL_EPS0">      9.87629822</i>
   <i name="MODEL_ALPHA">      1.00000000</i>
  </separator>
  <separator name="linear response parameters" >
   <i type="logical" name="LEPSILON"> F  </i>
   <i type="logical" name="LRPA"> F  </i>
   <i type="logical" name="LNABLA"> F  </i>
   <i type="logical" name="LVEL"> F  </i>
   <i type="int" name="KINTER">     0</i>
   <i name="CSHIFT">      0.10000000</i>
   <i name="OMEGAMAX">     -1.00000000</i>
   <i name="DEG_THRESHOLD">      0.00200000</i>
  </separator>
  <separator name="orbital magnetization" >
   <i type="logical" name="NUCIND"> F  </i>
   <v name="MAGPOS">      0.00000000      0.00000000      0.00000000</v>
   <i type="logical" name="LNICSALL"> T  </i>
   <i type="logical" name="ORBITALMAG"> F  </i>
   <i type="logical" name="LMAGBLOCH"> F  </i>
   <i type="logical" name="LCHIMAG"> F  </i>
   <i type="logical" name="LGAUGE"> T  </i>
   <i type="int" name="MAGATOM">     0</i>
   <v name="MAGDIPOL">      0.00000000      0.00000000      0.00000000</v>
   <v name="AVECCONST">      0.00000000      0.00000000      0.00000000</v>
  </separator>
  <separator name="response functions" >
   <i type="logical" name="LADDER"> F  </i>
   <i type="logical" name="LFXC"> F  </i>
   <i type="logical" name="LHARTREE"> T  </i>
   <i type="int" name="IBSE">     0</i>
   <v type="int" name="KPOINT">    -1     0     0     0</v>
   <i type="logical" name="LTCTE"> F  </i>
   <i type="logical" name="LTETE"> F  </i>
   <i type="logical" name="LTRIPLET"> F  </i>
   <i type="logical" name="LFXCEPS"> F  </i>
   <i type="logical" name="LFXHEG"> F  </i>
   <i type="int" name="NATURALO">     0</i>
   <i type="logical" name="L2ORDER"> F  </i>
   <i type="logical" name="LUSEW"> F  </i>
   <i name="ENCUTGW">     -2.00000000</i>
   <i name="ENCUTGWSOFT">     -2.00000000</i>
   <i name="ENCUTLF">     -1.00000000</i>
   <i type="int" name="LMAXMP2">    -1</i>
   <i name="SCISSOR">      0.00000000</i>
   <i type="int" name="NOMEGA">     0</i>
   <i type="int" name="NOMEGAR">     0</i>
   <i type="int" name="NBANDSGW">    -1</i>
   <i type="int" name="NBANDSO">    -1</i>
   <i type="int" name="NBANDSV">    -1</i>
   <i type="int" name="NELM">   100</i>
   <i type="int" name="NELMHF">     1</i>
   <i type="int" name="DIM">     3</i>
   <i type="int" name="ANTIRES">     0</i>
   <i name="OMEGAMAX">    -30.00000000</i>
   <i name="OMEGAMIN">    -30.00000000</i>
   <i name="OMEGATL">   -200.00000000</i>
   <i type="int" name="OMEGAGRID">     0</i>
   <i name="CSHIFT">     -0.10000000</i>
   <i type="logical" name="SELFENERGY"> F  </i>
   <i type="logical" name="LSPECTRAL"> F  </i>
   <i type="logical" name="LSPECTRALGW"> F  </i>
   <i type="logical" name="LSINGLES"> F  </i>
   <i type="logical" name="LFERMIGW"> F  </i>
   <i type="logical" name="ODDONLYGW"> F  </i>
   <i type="logical" name="EVENONLYGW"> F  </i>
   <i type="int" name="NKREDLFX">     1</i>
   <i type="int" name="NKREDLFY">     1</i>
   <i type="int" name="NKREDLFZ">     1</i>
   <i type="int" name="MAXMEM">  1800</i>
   <i type="int" name="TELESCOPE">     0</i>
   <i type="int" name="TAUPAR">     1</i>
   <i type="int" name="OMEGAPAR">    -1</i>
   <i name="LAMBDA">      1.00000000</i>
  </separator>
  <separator name="External order field" >
   <i name="OFIELD_KAPPA">      0.00000000</i>
   <v name="OFIELD_K">      0.00000000      0.00000000      0.00000000</v>
   <i name="OFIELD_Q6_NEAR">      0.00000000</i>
   <i name="OFIELD_Q6_FAR">      0.00000000</i>
   <i name="OFIELD_A">      0.00000000</i>
  </separator>
 </parameters>
 <atominfo>
  <atoms>       1 </atoms>
  <types>       1 </types>
  <array name="atoms" >
   <dimension dim="1">ion</dimension>
   <field type="string">element</field>
   <field type="int">atomtype</field>
   <set>
    <rc><c>Al</c><c>   1</c></rc>
   </set>
  </array>
  <array name="atomtypes" >
   <dimension dim="1">type</dimension>
   <field type="int">atomspertype</field>
   <field type="string">element</field>
   <field>mass</field>
   <field>valence</field>
   <field type="string">pseudopotential</field>
   <set>
    <rc><c>   1</c><c>Al</c><c>     26.98100000</c><c>      3.00000000</c><c>  PAW_PBE Al 04Jan2001                  </c></rc>
   </set>
  </array>
 </atominfo>
 <structure name="initialpos" >
  <crystal>
   <varray name="basis" >
    <v>      -2.01900619      -0.00000000       2.01900619 </v>
    <v>       0.00000000       2.01900619       2.01900619 </v>
    <v>      -2.01900619       2.01900619      -0.00000000 </v>
   </varray>
   <i name="volume">     16.46049703 </i>
   <varray name="rec_basis" >
    <v>      -0.24764659      -0.24764659       0.24764659 </v>
    <v>       0.24764659       0.24764659       0.24764659 </v>
    <v>      -0.24764659       0.24764659      -0.24764659 </v>
   </varray>
  </crystal>
  <varray name="positions" >
   <v>       0.00000000       0.00000000       0.00000000 </v>
  </varray>
 </structure>
 <calculation>
  <scstep>
   <time name="dav">    0.20    0.20</time>
   <time name="total">    0.23    0.23</time>
   <energy>
    <i name="alphaZ">     -0.20405276 </i>
    <i name="ewald">    -73.57448264 </i>
    <i name="hartreedc">     -0.10051023 </i>
    <i name="XCdc">    -26.23543754 </i>
    <i name="pawpsdc">     66.20015713 </i>
    <i name="pawaedc">    -34.24562076 </i>
    <i name="eentropy">     -0.00165103 </i>
    <i name="bandstr">     11.55750520 </i>
    <i name="atom">     53.53762400 </i>
    <i name="e_fr_energy">     -3.06646862 </i>
    <i name="e_wo_entrp">     -3.06481759 </i>
    <i name="e_0_energy">     -3.06605587 </i>
   </energy>
  </scstep>
  <scstep>
   <time name="dav">    0.22    0.22</time>
   <time name="total">    0.23    0.23</time>
   <energy>
    <i name="e_fr_energy">     -3.73921621 </i>
    <i name="e_wo_entrp">     -3.73648832 </i>
    <i name="e_0_energy">     -3.73853424 </i>
   </energy>
  </scstep>
  <scstep>
   <time name="dav">    0.20    0.20</time>
   <time name="total">    0.21    0.21</time>
   <energy>
    <i name="e_fr_energy">     -3.74531541 </i>
    <i name="e_wo_entrp">     -3.74291468 </i>
    <i name="e_0_energy">     -3.74471523 </i>
   </energy>
  </scstep>
  <scstep>
   <time name="dav">    0.22    0.22</time>
   <time name="total">    0.23    0.23</time>
   <energy>
    <i name="e_fr_energy">     -3.74532799 </i>
    <i name="e_wo_entrp">     -3.74292736 </i>
    <i name="e_0_energy">     -3.74472783 </i>
   </energy>
  </scstep>
  <scstep>
   <time name="dav">    0.21    0.21</time>
   <time name="total">    0.22    0.22</time>
   <energy>
    <i name="e_fr_energy">     -3.74532801 </i>
    <i name="e_wo_entrp">     -3.74292737 </i>
    <i name="e_0_energy">     -3.74472785 </i>
   </energy>
  </scstep>
  <scstep>
   <time name="dav">    0.20    0.20</time>
   <time name="total">    0.24    0.24</time>
   <energy>
    <i name="e_fr_energy">     -3.73197871 </i>
    <i name="e_wo_entrp">     -3.72951680 </i>
    <i name="e_0_energy">     -3.73136323 </i>
   </energy>
  </scstep>
  <scstep>
   <time name="dav">    0.19    0.19</time>
   <time name="total">    0.23    0.23</time>
   <energy>
    <i name="e_fr_energy">     -3.72224796 </i>
    <i name="e_wo_entrp">     -3.71965192 </i>
    <i name="e_0_energy">     -3.72159895 </i>
   </energy>
  </scstep>
  <scstep>
   <time name="dav">    0.21    0.21</time>
   <time name="total">    0.26    0.26</time>
   <energy>
    <i name="e_fr_energy">     -3.72224321 </i>
    <i name="e_wo_entrp">     -3.71963836 </i>
    <i name="e_0_energy">     -3.72159200 </i>
   </energy>
  </scstep>
  <scstep>
   <time name="dav">    0.19    0.19</time>
   <time name="total">    0.23    0.23</time>
   <energy>
    <i name="e_fr_energy">     -3.72224128 </i>
    <i name="e_wo_entrp">     -3.71963445 </i>
    <i name="e_0_energy">     -3.72158958 </i>
   </energy>
  </scstep>
  <scstep>
   <time name="dav">    0.21    0.21</time>
   <time name="total">    0.25    0.25</time>
   <energy>
    <i name="e_fr_energy">     -3.72224094 </i>
    <i name="e_wo_entrp">     -3.71963405 </i>
    <i name="e_0_energy">     -3.72158922 </i>
   </energy>
  </scstep>
  <scstep>
   <time name="dav">    0.14    0.14</time>
   <time name="total">    0.18    0.18</time>
   <energy>
    <i name="e_fr_energy">     -3.72224087 </i>
    <i name="e_wo_entrp">     -3.71963399 </i>
    <i name="e_0_energy">     -3.72158915 </i>
   </energy>
  </scstep>
  <scstep>
   <time name="dav">    0.13    0.13</time>
   <time name="total">    0.18    0.18</time>
   <energy>
    <i name="e_fr_energy">     -3.72224088 </i>
    <i name="e_wo_entrp">     -3.71963400 </i>
    <i name="e_0_energy">     -3.72158916 </i>
   </energy>
  </scstep>
  <scstep>
   <time name="dav">    0.12    0.12</time>
   <time name="total">    0.15    0.15</time>
   <energy>
    <i name="alphaZ">     -0.20405276 </i>
    <i name="ewald">    -73.57448264 </i>
    <i name="hartreedc">     -0.10221418 </i>
    <i name="XCdc">    -26.12689172 </i>
    <i name="pawpsdc">    150.29153994 </i>
    <i name="pawaedc">   -118.35028070 </i>
    <i name="eentropy">     -0.00260687 </i>
    <i name="bandstr">     10.80912406 </i>
    <i name="atom">     53.53762400 </i>
    <i name="e_fr_energy">     -3.72224088 </i>
    <i name="e_wo_entrp">     -3.71963401 </i>
    <i name="e_0_energy">     -3.72158916 </i>
   </energy>
  </scstep>
  <structure>
   <crystal>
    <varray name="basis" >
     <v>      -2.01900619      -0.00000000       2.01900619 </v>
     <v>       0.00000000       2.01900619       2.01900619 </v>
     <v>      -2.01900619       2.01900619      -0.00000000 </v>
    </varray>
    <i name="volume">     16.46049703 </i>
    <varray name="rec_basis" >
     <v>      -0.24764659      -0.24764659       0.24764659 </v>
     <v>       0.24764659       0.24764659       0.24764659 </v>
     <v>      -0.24764659       0.24764659      -0.24764659 </v>
    </varray>
   </crystal>
   <varray name="positions" >
    <v>       0.00000000       0.00000000       0.00000000 </v>
   </varray>
  </structure>
  <varray name="forces" >
   <v>      -0.00000000       0.00000000       0.00000000 </v>
  </varray>
  <varray name="stress" >
   <v>      -0.48607447       0.00000000       0.00000000 </v>
   <v>      -0.00000000      -0.48607447      -0.00000000 </v>
   <v>       0.00000000      -0.00000000      -0.48607447 </v>
  </varray>
  <energy>
   <i name="e_fr_energy">     -3.72224088 </i>
   <i name="e_wo_entrp">     -3.72158916 </i>
   <i name="e_0_energy">     -0.00260687 </i>
  </energy>
  <time name="totalsc">    3.03    3.04</time>
  <eigenvalues>
   <array>
    <dimension dim="1">band</dimension>
    <dimension dim="2">kpoint</dimension>
    <dimension dim="3">spin</dimension>
    <field>eigene</field>
    <field>occ</field>
    <set>
     <set comment="spin 1">
      <set comment="kpoint 1">
       <r>   -3.1257    1.0000 </r>
       <r>   20.6969    0.0000 </r>
       <r>   20.6969    0.0000 </r>
       <r>   20.6969    0.0000 </r>
       <r>   22.1682    0.0000 </r>
      </set>
      <set comment="kpoint 2">
       <r>   -2.8535    1.0000 </r>
       <r>   17.3858    0.0000 </r>
       <r>   19.9632    0.0000 </r>
       <r>   19.9632    0.0000 </r>
       <r>   22.8298    0.0000 </r>
      </set>
      <set comment="kpoint 3">
       <r>   -2.0403    1.0000 </r>
       <r>   13.3716    0.0000 </r>
       <r>   19.1969    0.0000 </r>
       <r>   19.1969    0.0000 </r>
       <r>   22.5398    0.0000 </r>
      </set>
      <set comment="kpoint 4">
       <r>   -0.6950    1.0000 </r>
       <r>    9.6700    0.0000 </r>
       <r>   18.8443    0.0000 </r>
       <r>   18.8443    0.0000 </r>
       <r>   21.9629    0.0000 </r>
      </set>
      <set comment="kpoint 5">
       <r>    1.1676    1.0000 </r>
       <r>    6.3781    1.0000 </r>
       <r>   18.9392    0.0000 </r>
       <r>   18.9392    0.0000 </r>
       <r>   20.5070    0.0000 </r>
      </set>
      <set comment="kpoint 6">
       <r>    3.4239    1.0000 </r>
       <r>    3.6444    1.0000 </r>
       <r>   19.4607    0.0000 </r>
       <r>   19.4609    0.0000 </r>
       <r>   19.5355    0.0000 </r>
      </set>
      <set comment="kpoint 7">
       <r>   -2.7629    1.0000 </r>
       <r>   18.5573    0.0000 </r>
       <r>   18.5573    0.0000 </r>
       <r>   18.8405    0.0000 </r>
       <r>   21.3773    0.0000 </r>
      </set>
      <set comment="kpoint 8">
       <r>   -2.1304    1.0000 </r>
       <r>   14.8465    0.0000 </r>
       <r>   17.5722    0.0000 </r>
       <r>   18.9825    0.0000 </r>
       <r>   21.4089    0.0000 </r>
      </set>
      <set comment="kpoint 9">
       <r>   -0.9632    1.0000 </r>
       <r>   11.0662    0.0000 </r>
       <r>   17.0448    0.0000 </r>
       <r>   18.6481    0.0000 </r>
       <r>   19.3806    0.0000 </r>
      </set>
      <set comment="kpoint 10">
       <r>    0.7260    1.0000 </r>
       <r>    7.6473    0.9985 </r>
       <r>   16.9790    0.0000 </r>
       <r>   17.6859    0.0000 </r>
       <r>   18.6654    0.0000 </r>
      </set>
      <set comment="kpoint 11">
       <r>    2.9154    1.0000 </r>
       <r>    4.6655    1.0000 </r>
       <r>   16.4869    0.0000 </r>
       <r>   17.3759    0.0000 </r>
       <r>   19.1080    0.0000 </r>
      </set>
      <set comment="kpoint 12">
       <r>    2.1328    1.0000 </r>
       <r>    5.6056    1.0000 </r>
       <r>   15.7611    0.0000 </r>
       <r>   18.2373    0.0000 </r>
       <r>   20.0269    0.0000 </r>
      </set>
      <set comment="kpoint 13">
       <r>    0.1062    1.0000 </r>
       <r>    8.7355    0.0006 </r>
       <r>   15.5205    0.0000 </r>
       <r>   19.5503    0.0000 </r>
       <r>   21.1373    0.0000 </r>
      </set>
      <set comment="kpoint 14">
       <r>   -1.4110    1.0000 </r>
       <r>   12.2633    0.0000 </r>
       <r>   15.7849    0.0000 </r>
       <r>   21.1059    0.0000 </r>
       <r>   21.4951    0.0000 </r>
      </set>
      <set comment="kpoint 15">
       <r>   -2.4011    1.0000 </r>
       <r>   15.7769    0.0000 </r>
       <r>   16.8669    0.0000 </r>
       <r>   21.4074    0.0000 </r>
       <r>   22.4953    0.0000 </r>
      </set>
      <set comment="kpoint 16">
       <r>   -1.6803    1.0000 </r>
       <r>   16.4132    0.0000 </r>
       <r>   16.4132    0.0000 </r>
       <r>   16.4941    0.0000 </r>
       <r>   18.8040    0.0000 </r>
      </set>
      <set comment="kpoint 17">
       <r>   -0.6952    1.0000 </r>
       <r>   12.8700    0.0000 </r>
       <r>   15.7202    0.0000 </r>
       <r>   16.4463    0.0000 </r>
       <r>   17.1596    0.0000 </r>
      </set>
      <set comment="kpoint 18">
       <r>    0.8136    1.0000 </r>
       <r>    9.3875    0.0000 </r>
       <r>   14.5913    0.0000 </r>
       <r>   15.4936    0.0000 </r>
       <r>   17.1699    0.0000 </r>
      </set>
      <set comment="kpoint 19">
       <r>    2.8269    1.0000 </r>
       <r>    6.2840    1.0000 </r>
       <r>   13.2004    0.0000 </r>
       <r>   15.7330    0.0000 </r>
       <r>   17.5033    0.0000 </r>
      </set>
      <set comment="kpoint 20">
       <r>    3.6074    1.0000 </r>
       <r>    5.3386    1.0000 </r>
       <r>   12.3072    0.0000 </r>
       <r>   16.4382    0.0000 </r>
       <r>   18.3026    0.0000 </r>
      </set>
      <set comment="kpoint 21">
       <r>    1.4311    1.0000 </r>
       <r>    8.2497    0.1114 </r>
       <r>   11.9554    0.0000 </r>
       <r>   17.6081    0.0000 </r>
       <r>   19.5713    0.0000 </r>
      </set>
      <set comment="kpoint 22">
       <r>   -0.2496    1.0000 </r>
       <r>   11.1059    0.0000 </r>
       <r>   12.5992    0.0000 </r>
       <r>   19.2353    0.0000 </r>
       <r>   21.2663    0.0000 </r>
      </set>
      <set comment="kpoint 23">
       <r>    0.1054    1.0000 </r>
       <r>   13.9292    0.0000 </r>
       <r>   14.7296    0.0000 </r>
       <r>   14.8665    0.0000 </r>
       <r>   14.8665    0.0000 </r>
      </set>
      <set comment="kpoint 24">
       <r>    1.4276    1.0000 </r>
       <r>   11.4761    0.0000 </r>
       <r>   11.9218    0.0000 </r>
       <r>   14.4820    0.0000 </r>
       <r>   15.7952    0.0000 </r>
      </set>
      <set comment="kpoint 25">
       <r>    3.2511    1.0000 </r>
       <r>    8.3606   -0.0515 </r>
       <r>   10.3092    0.0000 </r>
       <r>   14.5635    0.0000 </r>
       <r>   16.1666    0.0000 </r>
      </set>
      <set comment="kpoint 26">
       <r>    5.4233    1.0000 </r>
       <r>    5.6934    1.0000 </r>
       <r>    9.2714    0.0000 </r>
       <r>   15.1114    0.0000 </r>
       <r>   16.8497    0.0000 </r>
      </set>
      <set comment="kpoint 27">
       <r>    3.2634    1.0000 </r>
       <r>    7.7620    0.9951 </r>
       <r>    9.2655    0.0000 </r>
       <r>   16.1257    0.0000 </r>
       <r>   17.9939    0.0000 </r>
      </set>
      <set comment="kpoint 28">
       <r>    2.5561    1.0000 </r>
       <r>    9.5961    0.0000 </r>
       <r>   13.6639    0.0000 </r>
       <r>   13.9402    0.0000 </r>
       <r>   13.9402    0.0000 </r>
      </set>
      <set comment="kpoint 29">
       <r>    4.1577    1.0000 </r>
       <r>    7.8620    1.0096 </r>
       <r>   10.8851    0.0000 </r>
       <r>   13.8643    0.0000 </r>
       <r>   15.1116    0.0000 </r>
      </set>
      <set comment="kpoint 30">
       <r>    5.7610    1.0000 </r>
       <r>    7.0800    1.0000 </r>
       <r>    8.1156    0.7525 </r>
       <r>   14.2538    0.0000 </r>
       <r>   15.8223    0.0000 </r>
      </set>
      <set comment="kpoint 31">
       <r>    5.0960    1.0000 </r>
       <r>    6.4285    1.0000 </r>
       <r>   13.3070    0.0000 </r>
       <r>   13.6317    0.0000 </r>
       <r>   13.6317    0.0000 </r>
      </set>
      <set comment="kpoint 32">
       <r>   -1.3213    1.0000 </r>
       <r>   13.4498    0.0000 </r>
       <r>   14.7530    0.0000 </r>
       <r>   19.0973    0.0000 </r>
       <r>   20.0586    0.0000 </r>
      </set>
      <set comment="kpoint 33">
       <r>    0.0172    1.0000 </r>
       <r>   10.2638    0.0000 </r>
       <r>   13.8862    0.0000 </r>
       <r>   17.1112    0.0000 </r>
       <r>   20.3834    0.0000 </r>
      </set>
      <set comment="kpoint 34">
       <r>    1.8694    1.0000 </r>
       <r>    7.0405    1.0000 </r>
       <r>   13.9129    0.0000 </r>
       <r>   15.5855    0.0000 </r>
       <r>   20.5787    0.0000 </r>
      </set>
      <set comment="kpoint 35">
       <r>    4.0953    1.0000 </r>
       <r>    4.3480    1.0000 </r>
       <r>   14.2974    0.0000 </r>
       <r>   14.7055    0.0000 </r>
       <r>   21.0121    0.0000 </r>
      </set>
      <set comment="kpoint 36">
       <r>    0.4599    1.0000 </r>
       <r>   11.7787    0.0000 </r>
       <r>   13.1098    0.0000 </r>
       <r>   14.3416    0.0000 </r>
       <r>   18.4743    0.0000 </r>
      </set>
      <set comment="kpoint 37">
       <r>    2.1291    1.0000 </r>
       <r>    8.9148    0.0000 </r>
       <r>   12.3110    0.0000 </r>
       <r>   12.8456    0.0000 </r>
       <r>   19.1751    0.0000 </r>
      </set>
      <set comment="kpoint 38">
       <r>    4.2830    1.0000 </r>
       <r>    6.0204    1.0000 </r>
       <r>   11.2815    0.0000 </r>
       <r>   13.0040    0.0000 </r>
       <r>   19.7227    0.0000 </r>
      </set>
      <set comment="kpoint 39">
       <r>    3.5209    1.0000 </r>
       <r>    6.8966    1.0000 </r>
       <r>   10.6108    0.0000 </r>
       <r>   13.8794    0.0000 </r>
       <r>   20.6495    0.0000 </r>
      </set>
      <set comment="kpoint 40">
       <r>    1.5184    1.0000 </r>
       <r>    9.4337    0.0000 </r>
       <r>   10.9440    0.0000 </r>
       <r>   15.2611    0.0000 </r>
       <r>   21.9690    0.0000 </r>
      </set>
      <set comment="kpoint 41">
       <r>    2.9040    1.0000 </r>
       <r>    9.9116    0.0000 </r>
       <r>   10.7745    0.0000 </r>
       <r>   12.2484    0.0000 </r>
       <r>   17.4935    0.0000 </r>
      </set>
      <set comment="kpoint 42">
       <r>    4.8407    1.0000 </r>
       <r>    8.1479    0.5938 </r>
       <r>    8.6586    0.0023 </r>
       <r>   11.9717    0.0000 </r>
       <r>   18.5347    0.0000 </r>
      </set>
      <set comment="kpoint 43">
       <r>    5.6485    1.0000 </r>
       <r>    6.7607    1.0000 </r>
       <r>    8.2303    0.1846 </r>
       <r>   12.6574    0.0000 </r>
       <r>   19.4136    0.0000 </r>
      </set>
      <set comment="kpoint 44">
       <r>    5.4284    1.0000 </r>
       <r>    6.7761    1.0000 </r>
       <r>   10.4395    0.0000 </r>
       <r>   11.9046    0.0000 </r>
       <r>   17.1649    0.0000 </r>
      </set>
      <set comment="kpoint 45">
       <r>    3.9427    1.0000 </r>
       <r>    8.4307   -0.0259 </r>
       <r>    9.8424    0.0000 </r>
       <r>   11.1022    0.0000 </r>
       <r>   21.8224    0.0000 </r>
      </set>
      <set comment="kpoint 46">
       <r>    6.0833    1.0000 </r>
       <r>    6.3284    1.0000 </r>
       <r>    9.6290    0.0000 </r>
       <r>   10.3042    0.0000 </r>
       <r>   22.8067    0.0000 </r>
      </set>
      <set comment="kpoint 47">
       <r>    6.4272    1.0000 </r>
       <r>    7.7636    0.9951 </r>
       <r>    8.0962    0.8352 </r>
       <r>    9.7325    0.0000 </r>
       <r>   21.5016    0.0000 </r>
      </set>
     </set>
    </set>
   </array>
  </eigenvalues>
  <separator name="orbital magnetization" >
   <v name="MAGDIPOLOUT">      0.00000000      0.00000000      0.00000000</v>
  </separator>
  <dos>
   <i name="efermi">      8.16572717 </i>
   <total>
    <array>
     <dimension dim="1">gridpoints</dimension>
     <dimension dim="2">spin</dimension>
     <field>energy</field>
     <field>total</field>
     <field>integrated</field>
     <set>
      <set comment="spin 1">
       <r>    -5.1257     0.0000     0.0000 </r>
       <r>    -5.0259     0.0000     0.0000 </r>
       <r>    -4.9260     0.0000     0.0000 </r>
       <r>    -4.8262     0.0000     0.0000 </r>
       <r>    -4.7263     0.0000     0.0000 </r>
       <r>    -4.6264     0.0000     0.0000 </r>
       <r>    -4.5266     0.0000     0.0000 </r>
       <r>    -4.4267     0.0000     0.0000 </r>
       <r>    -4.3269     0.0000     0.0000 </r>
       <r>    -4.2270     0.0000     0.0000 </r>
       <r>    -4.1272     0.0000     0.0000 </r>
       <r>    -4.0273     0.0000     0.0000 </r>
       <r>    -3.9275     0.0000     0.0000 </r>
       <r>    -3.8276     0.0000     0.0000 </r>
       <r>    -3.7278     0.0000     0.0000 </r>
       <r>    -3.6279     0.0000     0.0000 </r>
       <r>    -3.5281     0.0001     0.0000 </r>
       <r>    -3.4282    -0.0002    -0.0000 </r>
       <r>    -3.3284    -0.0004    -0.0000 </r>
       <r>    -3.2285     0.0026     0.0002 </r>
       <r>    -3.1287     0.0046     0.0007 </r>
       <r>    -3.0288     0.0010     0.0008 </r>
       <r>    -2.9290     0.0310     0.0039 </r>
       <r>    -2.8291     0.1047     0.0143 </r>
       <r>    -2.7293     0.1167     0.0260 </r>
       <r>    -2.6294     0.0396     0.0299 </r>
       <r>    -2.5296     0.0082     0.0307 </r>
       <r>    -2.4297     0.0718     0.0379 </r>
       <r>    -2.3299     0.0955     0.0474 </r>
       <r>    -2.2300     0.0987     0.0573 </r>
       <r>    -2.1302     0.2286     0.0801 </r>
       <r>    -2.0303     0.2777     0.1079 </r>
       <r>    -1.9305     0.1167     0.1195 </r>
       <r>    -1.8306    -0.0028     0.1192 </r>
       <r>    -1.7307     0.0163     0.1208 </r>
       <r>    -1.6309     0.0339     0.1242 </r>
       <r>    -1.5310     0.0438     0.1286 </r>
       <r>    -1.4312     0.2257     0.1511 </r>
       <r>    -1.3313     0.4246     0.1935 </r>
       <r>    -1.2315     0.2936     0.2229 </r>
       <r>    -1.1316     0.0460     0.2274 </r>
       <r>    -1.0318     0.0710     0.2345 </r>
       <r>    -0.9319     0.2040     0.2549 </r>
       <r>    -0.8321     0.1829     0.2732 </r>
       <r>    -0.7322     0.2269     0.2958 </r>
       <r>    -0.6324     0.3013     0.3259 </r>
       <r>    -0.5325     0.1431     0.3402 </r>
       <r>    -0.4327    -0.0132     0.3389 </r>
       <r>    -0.3328     0.0206     0.3409 </r>
       <r>    -0.2330     0.0778     0.3487 </r>
       <r>    -0.1331     0.0735     0.3560 </r>
       <r>    -0.0333     0.2965     0.3856 </r>
       <r>     0.0666     0.6661     0.4522 </r>
       <r>     0.1664     0.5614     0.5082 </r>
       <r>     0.2663     0.1320     0.5214 </r>
       <r>     0.3661     0.0231     0.5237 </r>
       <r>     0.4660     0.1804     0.5417 </r>
       <r>     0.5658     0.1824     0.5599 </r>
       <r>     0.6657     0.1675     0.5767 </r>
       <r>     0.7655     0.3599     0.6126 </r>
       <r>     0.8654     0.3859     0.6511 </r>
       <r>     0.9652     0.1382     0.6649 </r>
       <r>     1.0651    -0.0001     0.6649 </r>
       <r>     1.1650     0.0217     0.6671 </r>
       <r>     1.2648     0.0387     0.6709 </r>
       <r>     1.3647     0.2399     0.6949 </r>
       <r>     1.4645     0.6034     0.7551 </r>
       <r>     1.5644     0.5460     0.8097 </r>
       <r>     1.6642     0.1318     0.8228 </r>
       <r>     1.7641     0.0598     0.8288 </r>
       <r>     1.8639     0.3441     0.8631 </r>
       <r>     1.9638     0.4065     0.9037 </r>
       <r>     2.0636     0.4460     0.9483 </r>
       <r>     2.1635     0.6786     1.0160 </r>
       <r>     2.2633     0.4700     1.0630 </r>
       <r>     2.3632     0.0436     1.0673 </r>
       <r>     2.4630    -0.0362     1.0637 </r>
       <r>     2.5629     0.0293     1.0666 </r>
       <r>     2.6627     0.0129     1.0679 </r>
       <r>     2.7626     0.1298     1.0809 </r>
       <r>     2.8624     0.5153     1.1323 </r>
       <r>     2.9623     0.6280     1.1950 </r>
       <r>     3.0621     0.2493     1.2199 </r>
       <r>     3.1620     0.0736     1.2273 </r>
       <r>     3.2618     0.2589     1.2531 </r>
       <r>     3.3617     0.2915     1.2822 </r>
       <r>     3.4615     0.3509     1.3173 </r>
       <r>     3.5614     0.6353     1.3807 </r>
       <r>     3.6612     0.5650     1.4371 </r>
       <r>     3.7611     0.1587     1.4530 </r>
       <r>     3.8610     0.0264     1.4556 </r>
       <r>     3.9608     0.1927     1.4748 </r>
       <r>     4.0607     0.3574     1.5105 </r>
       <r>     4.1605     0.5207     1.5625 </r>
       <r>     4.2604     0.7304     1.6355 </r>
       <r>     4.3602     0.7204     1.7074 </r>
       <r>     4.4601     0.3225     1.7396 </r>
       <r>     4.5599     0.0272     1.7423 </r>
       <r>     4.6598     0.1322     1.7555 </r>
       <r>     4.7596     0.3794     1.7934 </r>
       <r>     4.8595     0.5246     1.8458 </r>
       <r>     4.9593     0.3577     1.8815 </r>
       <r>     5.0592     0.0601     1.8875 </r>
       <r>     5.1590    -0.0414     1.8834 </r>
       <r>     5.2589     0.0779     1.8911 </r>
       <r>     5.3587     0.3649     1.9276 </r>
       <r>     5.4586     0.5037     1.9779 </r>
       <r>     5.5584     0.4863     2.0264 </r>
       <r>     5.6583     0.6510     2.0914 </r>
       <r>     5.7581     0.6063     2.1520 </r>
       <r>     5.8580     0.2219     2.1741 </r>
       <r>     5.9578     0.2342     2.1975 </r>
       <r>     6.0577     0.5913     2.2566 </r>
       <r>     6.1575     0.5403     2.3105 </r>
       <r>     6.2574     0.3941     2.3499 </r>
       <r>     6.3572     0.5487     2.4046 </r>
       <r>     6.4571     0.4675     2.4513 </r>
       <r>     6.5569     0.1125     2.4626 </r>
       <r>     6.6568     0.0059     2.4631 </r>
       <r>     6.7567     0.2728     2.4904 </r>
       <r>     6.8565     0.5923     2.5495 </r>
       <r>     6.9564     0.7531     2.6247 </r>
       <r>     7.0562     0.7532     2.6999 </r>
       <r>     7.1561     0.4717     2.7470 </r>
       <r>     7.2559     0.0862     2.7556 </r>
       <r>     7.3558    -0.0530     2.7504 </r>
       <r>     7.4556    -0.0363     2.7467 </r>
       <r>     7.5555     0.0443     2.7511 </r>
       <r>     7.6553     0.2493     2.7760 </r>
       <r>     7.7552     0.4502     2.8210 </r>
       <r>     7.8550     0.4332     2.8643 </r>
       <r>     7.9549     0.2096     2.8852 </r>
       <r>     8.0547     0.2626     2.9114 </r>
       <r>     8.1546     0.7739     2.9887 </r>
       <r>     8.2544     1.0200     3.0905 </r>
       <r>     8.3543     0.7573     3.1661 </r>
       <r>     8.4541     0.4190     3.2080 </r>
       <r>     8.5540     0.2673     3.2347 </r>
       <r>     8.6538     0.4617     3.2808 </r>
       <r>     8.7537     0.6250     3.3432 </r>
       <r>     8.8535     0.5415     3.3972 </r>
       <r>     8.9534     0.4718     3.4444 </r>
       <r>     9.0532     0.2405     3.4684 </r>
       <r>     9.1531     0.0376     3.4721 </r>
       <r>     9.2529     0.2491     3.4970 </r>
       <r>     9.3528     0.5648     3.5534 </r>
       <r>     9.4527     0.5679     3.6101 </r>
       <r>     9.5525     0.3908     3.6491 </r>
       <r>     9.6524     0.3700     3.6861 </r>
       <r>     9.7522     0.4329     3.7293 </r>
       <r>     9.8521     0.4852     3.7777 </r>
       <r>     9.9519     0.4156     3.8192 </r>
       <r>    10.0518     0.1050     3.8297 </r>
       <r>    10.1516     0.0550     3.8352 </r>
       <r>    10.2515     0.6102     3.8961 </r>
       <r>    10.3513     0.9386     3.9899 </r>
       <r>    10.4512     0.5335     4.0431 </r>
       <r>    10.5510     0.2894     4.0720 </r>
       <r>    10.6509     0.4462     4.1166 </r>
       <r>    10.7507     0.4594     4.1625 </r>
       <r>    10.8506     0.4348     4.2059 </r>
       <r>    10.9504     0.5382     4.2596 </r>
       <r>    11.0503     0.6412     4.3236 </r>
       <r>    11.1501     0.6458     4.3881 </r>
       <r>    11.2500     0.5689     4.4449 </r>
       <r>    11.3498     0.4814     4.4930 </r>
       <r>    11.4497     0.3482     4.5278 </r>
       <r>    11.5495     0.1991     4.5476 </r>
       <r>    11.6494     0.0545     4.5531 </r>
       <r>    11.7492     0.0865     4.5617 </r>
       <r>    11.8491     0.4884     4.6105 </r>
       <r>    11.9489     1.0051     4.7108 </r>
       <r>    12.0488     0.8342     4.7941 </r>
       <r>    12.1486     0.3219     4.8263 </r>
       <r>    12.2485     0.6760     4.8938 </r>
       <r>    12.3484     1.1098     5.0046 </r>
       <r>    12.4482     0.5824     5.0627 </r>
       <r>    12.5481     0.0873     5.0715 </r>
       <r>    12.6479     0.1899     5.0904 </r>
       <r>    12.7478     0.3951     5.1299 </r>
       <r>    12.8476     0.6584     5.1956 </r>
       <r>    12.9475     0.8493     5.2804 </r>
       <r>    13.0473     0.7743     5.3577 </r>
       <r>    13.1472     0.5963     5.4173 </r>
       <r>    13.2470     0.3875     5.4560 </r>
       <r>    13.3469     0.2576     5.4817 </r>
       <r>    13.4467     0.2894     5.5106 </r>
       <r>    13.5466     0.2433     5.5349 </r>
       <r>    13.6464     0.0276     5.5376 </r>
       <r>    13.7463     0.1276     5.5504 </r>
       <r>    13.8461     1.1033     5.6605 </r>
       <r>    13.9460     1.8198     5.8423 </r>
       <r>    14.0458     0.9715     5.9393 </r>
       <r>    14.1457     0.0172     5.9410 </r>
       <r>    14.2455     0.1480     5.9557 </r>
       <r>    14.3454     0.5334     6.0090 </r>
       <r>    14.4452     0.5572     6.0646 </r>
       <r>    14.5451     0.5724     6.1218 </r>
       <r>    14.6449     0.6947     6.1912 </r>
       <r>    14.7448     0.7582     6.2669 </r>
       <r>    14.8446     0.6649     6.3333 </r>
       <r>    14.9445     0.3624     6.3694 </r>
       <r>    15.0443     0.2557     6.3950 </r>
       <r>    15.1442     0.4752     6.4424 </r>
       <r>    15.2441     0.4769     6.4900 </r>
       <r>    15.3439     0.2195     6.5119 </r>
       <r>    15.4438     0.2513     6.5370 </r>
       <r>    15.5436     0.6495     6.6019 </r>
       <r>    15.6435     0.9854     6.7003 </r>
       <r>    15.7433     1.3181     6.8319 </r>
       <r>    15.8432     1.2687     6.9586 </r>
       <r>    15.9430     0.4893     7.0074 </r>
       <r>    16.0429     0.0211     7.0095 </r>
       <r>    16.1427     0.2014     7.0297 </r>
       <r>    16.2426     0.2624     7.0559 </r>
       <r>    16.3424     0.2775     7.0836 </r>
       <r>    16.4423     0.6971     7.1532 </r>
       <r>    16.5421     0.7883     7.2319 </r>
       <r>    16.6420     0.2529     7.2571 </r>
       <r>    16.7418    -0.0157     7.2556 </r>
       <r>    16.8417     0.2066     7.2762 </r>
       <r>    16.9415     0.4756     7.3237 </r>
       <r>    17.0414     0.8267     7.4062 </r>
       <r>    17.1412     1.2011     7.5262 </r>
       <r>    17.2411     0.9364     7.6197 </r>
       <r>    17.3409     0.3940     7.6590 </r>
       <r>    17.4408     0.4725     7.7062 </r>
       <r>    17.5406     0.8750     7.7936 </r>
       <r>    17.6405     0.9098     7.8844 </r>
       <r>    17.7403     0.5005     7.9344 </r>
       <r>    17.8402     0.0984     7.9442 </r>
       <r>    17.9401     0.0196     7.9462 </r>
       <r>    18.0399     0.0761     7.9538 </r>
       <r>    18.1398     0.1255     7.9663 </r>
       <r>    18.2396     0.2950     7.9957 </r>
       <r>    18.3395     0.3963     8.0353 </r>
       <r>    18.4393     0.4669     8.0819 </r>
       <r>    18.5392     0.8127     8.1631 </r>
       <r>    18.6390     0.9586     8.2588 </r>
       <r>    18.7389     0.6274     8.3214 </r>
       <r>    18.8387     0.3598     8.3574 </r>
       <r>    18.9386     0.4091     8.3982 </r>
       <r>    19.0384     0.6553     8.4637 </r>
       <r>    19.1383     1.0173     8.5652 </r>
       <r>    19.2381     1.0208     8.6672 </r>
       <r>    19.3380     0.6415     8.7312 </r>
       <r>    19.4378     0.5535     8.7865 </r>
       <r>    19.5377     0.6851     8.8549 </r>
       <r>    19.6375     0.6970     8.9245 </r>
       <r>    19.7374     0.5793     8.9823 </r>
       <r>    19.8372     0.3240     9.0147 </r>
       <r>    19.9371     0.2627     9.0409 </r>
       <r>    20.0369     0.5205     9.0929 </r>
       <r>    20.1368     0.4548     9.1383 </r>
       <r>    20.2366     0.1235     9.1506 </r>
       <r>    20.3365     0.1885     9.1695 </r>
       <r>    20.4363     0.4703     9.2164 </r>
       <r>    20.5362     0.7094     9.2873 </r>
       <r>    20.6360     0.9412     9.3812 </r>
       <r>    20.7359     0.6886     9.4500 </r>
       <r>    20.8358     0.1176     9.4617 </r>
       <r>    20.9356    -0.0014     9.4616 </r>
       <r>    21.0355     0.3545     9.4970 </r>
       <r>    21.1353     0.6128     9.5582 </r>
       <r>    21.2352     0.4538     9.6035 </r>
       <r>    21.3350     0.3445     9.6379 </r>
       <r>    21.4349     0.5939     9.6972 </r>
       <r>    21.5347     0.6280     9.7599 </r>
       <r>    21.6346     0.2405     9.7839 </r>
       <r>    21.7344     0.0308     9.7870 </r>
       <r>    21.8343     0.2099     9.8079 </r>
       <r>    21.9341     0.4110     9.8490 </r>
       <r>    22.0340     0.3608     9.8850 </r>
       <r>    22.1338     0.1302     9.8980 </r>
       <r>    22.2337    -0.0177     9.8963 </r>
       <r>    22.3335    -0.0211     9.8941 </r>
       <r>    22.4334     0.0736     9.9015 </r>
       <r>    22.5332     0.1735     9.9188 </r>
       <r>    22.6331     0.1316     9.9320 </r>
       <r>    22.7329     0.1405     9.9460 </r>
       <r>    22.8328     0.2907     9.9750 </r>
       <r>    22.9326     0.2392     9.9989 </r>
       <r>    23.0325     0.0395    10.0029 </r>
       <r>    23.1323    -0.0256    10.0003 </r>
       <r>    23.2322    -0.0060     9.9997 </r>
       <r>    23.3320     0.0020     9.9999 </r>
       <r>    23.4319     0.0009    10.0000 </r>
       <r>    23.5318     0.0001    10.0000 </r>
       <r>    23.6316     0.0000    10.0000 </r>
       <r>    23.7315     0.0000    10.0000 </r>
       <r>    23.8313     0.0000    10.0000 </r>
       <r>    23.9312     0.0000    10.0000 </r>
       <r>    24.0310     0.0000    10.0000 </r>
       <r>    24.1309     0.0000    10.0000 </r>
       <r>    24.2307     0.0000    10.0000 </r>
       <r>    24.3306     0.0000    10.0000 </r>
       <r>    24.4304     0.0000    10.0000 </r>
       <r>    24.5303     0.0000    10.0000 </r>
       <r>    24.6301     0.0000    10.0000 </r>
       <r>    24.7300     0.0000    10.0000 </r>
       <r>    24.8298     0.0000    10.0000 </r>
      </set>
     </set>
    </array>
   </total>
  </dos>
 </calculation>
 <structure name="finalpos" >
  <crystal>
   <varray name="basis" >
    <v>      -2.01900619      -0.00000000       2.01900619 </v>
    <v>       0.00000000       2.01900619       2.01900619 </v>
    <v>      -2.01900619       2.01900619      -0.00000000 </v>
   </varray>
   <i name="volume">     16.46049703 </i>
   <varray name="rec_basis" >
    <v>      -0.24764659      -0.24764659       0.24764659 </v>
    <v>       0.24764659       0.24764659       0.24764659 </v>
    <v>      -0.24764659       0.24764659      -0.24764659 </v>
   </varray>
  </crystal>
  <varray name="positions" >
   <v>       0.00000000       0.00000000       0.00000000 </v>
  </varray>
 </structure>
</modeling>
