 vasp.5.4.1 24Jun15 (build Mar  6 2017 20:45:23) complex                         
 executed on           IFC91_ompi date 2017.07.26  17:46:46
 running on    1 total cores
 distrk:  each k-point on    1 cores,    1 groups
 distr:  one band on NCORES_PER_BAND=   1 cores,    1 groups


--------------------------------------------------------------------------------------------------------


 INCAR:
 POTCAR:    PAW_PBE B 06Sep2000                   
 POTCAR:    PAW_PBE Mg_pv 13Apr2007               
 POTCAR:    PAW_PBE B 06Sep2000                   
   VRHFIN =B: s2p1                                                              
   LEXCH  = PE                                                                  
   EATOM  =    71.1703 eV,    5.2309 Ry                                         
                                                                                
   TITEL  = PAW_PBE B 06Sep2000                                                 
   LULTRA =        F    use ultrasoft PP ?                                      
   IUNSCR =        1    unscreen: 0-lin 1-nonlin 2-no                           
   RPACOR =    1.200    partial core radius                                     
   POMASS =   10.811; ZVAL   =    3.000    mass and valenz                      
   RCORE  =    1.700    outmost cutoff radius                                   
   RWIGS  =    1.710; RWIGS  =    0.905    wigner-seitz radius (au A)           
   ENMAX  =  318.614; ENMIN  =  238.960 eV                                      
   ICORE  =        2    local potential                                         
   LCOR   =        T    correct aug charges                                     
   LPAW   =        T    paw PP                                                  
   EAUG   =  535.514                                                            
   DEXC   =    0.000                                                            
   RMAX   =    1.732    core radius for proj-oper                               
   RAUG   =    1.300    factor for augmentation sphere                          
   RDEP   =    1.757    radius for radial grids                                 
   RDEPT  =    1.436    core radius for aug-charge                              
                                                                                
   Atomic configuration                                                         
    4 entries                                                                   
     n  l   j            E        occ.                                          
     1  0  0.50      -180.5896   2.0000                                         
     2  0  0.50        -9.4431   2.0000                                         
     2  1  0.50        -3.6068   1.0000                                         
     3  2  1.50        -4.0817   0.0000                                         
   Description                                                                  
     l       E           TYP  RCUT    TYP  RCUT                                 
     0     -9.4430752     23  1.500                                             
     0      0.8675899     23  1.500                                             
     1     -3.6067955     23  1.700                                             
     1      6.1086146     23  1.700                                             
     2     -4.0817478      7  1.700                                             
  local pseudopotential read in
  partial core-charges read in
  partial kinetic energy density read in
  atomic valenz-charges read in
  non local Contribution for L=           0  read in
    real space projection operators read in
  non local Contribution for L=           0  read in
    real space projection operators read in
  non local Contribution for L=           1  read in
    real space projection operators read in
  non local Contribution for L=           1  read in
    real space projection operators read in
    PAW grid and wavefunctions read in

   number of l-projection  operators is LMAX  =           4
   number of lm-projection operators is LMMAX =           8

 POTCAR:    PAW_PBE Mg_pv 13Apr2007               
   VRHFIN =Mg: p6s2                                                             
   LEXCH  = PE                                                                  
   EATOM  =  1056.7344 eV,   77.6678 Ry                                         
                                                                                
   TITEL  = PAW_PBE Mg_pv 13Apr2007                                             
   LULTRA =        F    use ultrasoft PP ?                                      
   IUNSCR =        1    unscreen: 0-lin 1-nonlin 2-no                           
   RPACOR =    1.500    partial core radius                                     
   POMASS =   24.305; ZVAL   =    8.000    mass and valenz                      
   RCORE  =    2.000    outmost cutoff radius                                   
   RWIGS  =    2.000; RWIGS  =    1.058    wigner-seitz radius (au A)           
   ENMAX  =  403.929; ENMIN  =  302.947 eV                                      
   RCLOC  =    1.506    cutoff for local pot                                    
   LCOR   =        T    correct aug charges                                     
   LPAW   =        T    paw PP                                                  
   EAUG   =  758.780                                                            
   DEXC   =    0.000                                                            
   RMAX   =    2.045    core radius for proj-oper                               
   RAUG   =    1.300    factor for augmentation sphere                          
   RDEP   =    2.025    radius for radial grids                                 
   RDEPT  =    1.557    core radius for aug-charge                              
                                                                                
   Atomic configuration                                                         
    5 entries                                                                   
     n  l   j            E        occ.                                          
     1  0  0.50     -1259.6230   2.0000                                         
     2  0  0.50       -79.8442   2.0000                                         
     2  1  1.50       -46.6121   6.0000                                         
     3  0  0.50        -4.7055   2.0000                                         
     3  2  1.50        -1.3606   0.0000                                         
   Description                                                                  
     l       E           TYP  RCUT    TYP  RCUT                                 
     1    -46.6121073     23  1.600                                             
     1      2.7211652     23  1.600                                             
     0     -4.7054661     23  2.000                                             
     0     61.2262170     23  2.000                                             
     2     -1.3605826     23  2.000                                             
  local pseudopotential read in
  partial core-charges read in
  partial kinetic energy density read in
  atomic valenz-charges read in
  non local Contribution for L=           1  read in
    real space projection operators read in
  non local Contribution for L=           1  read in
    real space projection operators read in
  non local Contribution for L=           0  read in
    real space projection operators read in
  non local Contribution for L=           0  read in
    real space projection operators read in
  non local Contribution for L=           2  read in
    real space projection operators read in
    PAW grid and wavefunctions read in

   number of l-projection  operators is LMAX  =           5
   number of lm-projection operators is LMMAX =          13


 ----------------------------------------------------------------------------- 
|                                                                             |
|  ADVICE TO THIS USER RUNNING 'VASP/VAMP'   (HEAR YOUR MASTER'S VOICE ...):  |
|                                                                             |
|      You have a (more or less) 'small supercell' and for smaller cells      |
|      it is recommended  to use the reciprocal-space projection scheme!      |
|      The real space optimization is not  efficient for small cells and it   |
|      is also less accurate ...                                              |
|      Therefore set LREAL=.FALSE. in the  INCAR file                         |
|                                                                             |
 ----------------------------------------------------------------------------- 

 Optimization of the real space projectors (new method)

 maximal supplied QI-value         = 22.11
 optimisation between [QCUT,QGAM] = [ 10.17, 20.56] = [ 28.97,118.40] Ry 
 Optimized for a Real-space Cutoff    1.26 Angstroem

   l    n(q)    QCUT    max X(q) W(low)/X(q) W(high)/X(q)  e(spline) 
   0      8    10.171    53.033    0.23E-03    0.76E-04    0.22E-06
   0      8    10.171    34.740    0.23E-03    0.69E-04    0.22E-06
   1      7    10.171    30.949    0.92E-04    0.36E-03    0.15E-06
   1      7    10.171    19.518    0.86E-04    0.33E-03    0.14E-06
 Optimization of the real space projectors (new method)

 maximal supplied QI-value         = 18.90
 optimisation between [QCUT,QGAM] = [ 10.20, 20.41] = [ 29.16,116.64] Ry 
 Optimized for a Real-space Cutoff    1.33 Angstroem

   l    n(q)    QCUT    max X(q) W(low)/X(q) W(high)/X(q)  e(spline) 
   1      8    10.205     2.974    0.24E-04    0.75E-04    0.15E-06
   1      8    10.205     4.279    0.96E-04    0.26E-03    0.27E-06
   0      8    10.205    16.381    0.11E-03    0.38E-04    0.60E-07
   0      8    10.205     5.611    0.80E-04    0.33E-04    0.44E-07
   2      7    10.205     4.652    0.13E-03    0.27E-03    0.58E-07
  PAW_PBE B 06Sep2000                   :
 energy of atom  1       EATOM=  -71.1703
 kinetic energy error for atom=    0.0019 (will be added to EATOM!!)
  PAW_PBE Mg_pv 13Apr2007               :
 energy of atom  2       EATOM=-1056.7344
 kinetic energy error for atom=    0.0746 (will be added to EATOM!!)


 POSCAR: Mg1 B2                                  
  positions in direct lattice
  velocities in cartesian coordinates
 exchange correlation table for  LEXCH =        8
   RHO(1)=    0.500       N(1)  =     2000
   RHO(2)=  100.500       N(2)  =     4000



--------------------------------------------------------------------------------------------------------


 ion  position               nearest neighbor table
   1  0.667  0.333  0.500-   2 1.76   2 1.76   2 1.76
   2  0.333  0.667  0.500-   1 1.76   1 1.76   1 1.76
   3  0.000  0.000  0.000-

  LATTYP: Found a hexagonal cell.
 ALAT       =     3.0559564955
 C/A-ratio  =     1.1483031936
  
  Lattice vectors:
  
 A1 = (   3.0559564641,  -0.0000000000,  -0.0000000000)
 A2 = (  -1.5279782321,   2.6465359671,  -0.0000000000)
 A3 = (   0.0000000000,   0.0000000000,   3.5091646032)


Analysis of symmetry for initial positions (statically):
=====================================================================
 Subroutine PRICEL returns:
 Original cell was already a primitive cell.
 

 Routine SETGRP: Setting up the symmetry group for a 
 hexagonal supercell.


 Subroutine GETGRP returns: Found 24 space group operations
 (whereof 24 operations were pure point group operations)
 out of a pool of 24 trial point group operations.


The static configuration has the point symmetry D_6h.


Analysis of symmetry for dynamics (positions and initial velocities):
=====================================================================
 Subroutine PRICEL returns:
 Original cell was already a primitive cell.
 

 Routine SETGRP: Setting up the symmetry group for a 
 hexagonal supercell.


 Subroutine GETGRP returns: Found 24 space group operations
 (whereof 24 operations were pure point group operations)
 out of a pool of 24 trial point group operations.


The dynamic configuration has the point symmetry D_6h.


 irot  :   1
 --------------------------------------------------------------------
 isymop:   1   0   0
           0   1   0
           0   0   1

 gtrans:     0.0000000     0.0000000     0.0000000

 ptrans:     0.0000000     0.0000000     0.0000000
 rotmap:
 (   1->   1)  (   2->   2)  (   3->   3) 


 irot  :   2
 --------------------------------------------------------------------
 isymop:  -1   0   0
           0  -1   0
           0   0  -1

 gtrans:     0.0000000     0.0000000     0.0000000

 ptrans:     0.0000000     0.0000000     0.0000000
 rotmap:
 (   1->   2)  (   2->   1)  (   3->   3) 


 irot  :   3
 --------------------------------------------------------------------
 isymop:   1  -1   0
           1   0   0
           0   0   1

 gtrans:     0.0000000     0.0000000     0.0000000

 ptrans:     0.0000000     0.0000000     0.0000000
 rotmap:
 (   1->   2)  (   2->   1)  (   3->   3) 


 irot  :   4
 --------------------------------------------------------------------
 isymop:  -1   1   0
          -1   0   0
           0   0  -1

 gtrans:     0.0000000     0.0000000     0.0000000

 ptrans:     0.0000000     0.0000000     0.0000000
 rotmap:
 (   1->   1)  (   2->   2)  (   3->   3) 


 irot  :   5
 --------------------------------------------------------------------
 isymop:   0  -1   0
           1  -1   0
           0   0   1

 gtrans:     0.0000000     0.0000000     0.0000000

 ptrans:     0.0000000     0.0000000     0.0000000
 rotmap:
 (   1->   1)  (   2->   2)  (   3->   3) 


 irot  :   6
 --------------------------------------------------------------------
 isymop:   0   1   0
          -1   1   0
           0   0  -1

 gtrans:     0.0000000     0.0000000     0.0000000

 ptrans:     0.0000000     0.0000000     0.0000000
 rotmap:
 (   1->   2)  (   2->   1)  (   3->   3) 


 irot  :   7
 --------------------------------------------------------------------
 isymop:  -1   0   0
           0  -1   0
           0   0   1

 gtrans:     0.0000000     0.0000000     0.0000000

 ptrans:     0.0000000     0.0000000     0.0000000
 rotmap:
 (   1->   2)  (   2->   1)  (   3->   3) 


 irot  :   8
 --------------------------------------------------------------------
 isymop:   1   0   0
           0   1   0
           0   0  -1

 gtrans:     0.0000000     0.0000000     0.0000000

 ptrans:     0.0000000     0.0000000     0.0000000
 rotmap:
 (   1->   1)  (   2->   2)  (   3->   3) 


 irot  :   9
 --------------------------------------------------------------------
 isymop:  -1   1   0
          -1   0   0
           0   0   1

 gtrans:     0.0000000     0.0000000     0.0000000

 ptrans:     0.0000000     0.0000000     0.0000000
 rotmap:
 (   1->   1)  (   2->   2)  (   3->   3) 


 irot  :  10
 --------------------------------------------------------------------
 isymop:   1  -1   0
           1   0   0
           0   0  -1

 gtrans:     0.0000000     0.0000000     0.0000000

 ptrans:     0.0000000     0.0000000     0.0000000
 rotmap:
 (   1->   2)  (   2->   1)  (   3->   3) 


 irot  :  11
 --------------------------------------------------------------------
 isymop:   0   1   0
          -1   1   0
           0   0   1

 gtrans:     0.0000000     0.0000000     0.0000000

 ptrans:     0.0000000     0.0000000     0.0000000
 rotmap:
 (   1->   2)  (   2->   1)  (   3->   3) 


 irot  :  12
 --------------------------------------------------------------------
 isymop:   0  -1   0
           1  -1   0
           0   0  -1

 gtrans:     0.0000000     0.0000000     0.0000000

 ptrans:     0.0000000     0.0000000     0.0000000
 rotmap:
 (   1->   1)  (   2->   2)  (   3->   3) 


 irot  :  13
 --------------------------------------------------------------------
 isymop:   1  -1   0
           0  -1   0
           0   0  -1

 gtrans:     0.0000000     0.0000000     0.0000000

 ptrans:     0.0000000     0.0000000     0.0000000
 rotmap:
 (   1->   2)  (   2->   1)  (   3->   3) 


 irot  :  14
 --------------------------------------------------------------------
 isymop:  -1   1   0
           0   1   0
           0   0   1

 gtrans:     0.0000000     0.0000000     0.0000000

 ptrans:     0.0000000     0.0000000     0.0000000
 rotmap:
 (   1->   1)  (   2->   2)  (   3->   3) 


 irot  :  15
 --------------------------------------------------------------------
 isymop:   0  -1   0
          -1   0   0
           0   0  -1

 gtrans:     0.0000000     0.0000000     0.0000000

 ptrans:     0.0000000     0.0000000     0.0000000
 rotmap:
 (   1->   1)  (   2->   2)  (   3->   3) 


 irot  :  16
 --------------------------------------------------------------------
 isymop:   0   1   0
           1   0   0
           0   0   1

 gtrans:     0.0000000     0.0000000     0.0000000

 ptrans:     0.0000000     0.0000000     0.0000000
 rotmap:
 (   1->   2)  (   2->   1)  (   3->   3) 


 irot  :  17
 --------------------------------------------------------------------
 isymop:  -1   0   0
          -1   1   0
           0   0  -1

 gtrans:     0.0000000     0.0000000     0.0000000

 ptrans:     0.0000000     0.0000000     0.0000000
 rotmap:
 (   1->   2)  (   2->   1)  (   3->   3) 


 irot  :  18
 --------------------------------------------------------------------
 isymop:   1   0   0
           1  -1   0
           0   0   1

 gtrans:     0.0000000     0.0000000     0.0000000

 ptrans:     0.0000000     0.0000000     0.0000000
 rotmap:
 (   1->   1)  (   2->   2)  (   3->   3) 


 irot  :  19
 --------------------------------------------------------------------
 isymop:  -1   1   0
           0   1   0
           0   0  -1

 gtrans:     0.0000000     0.0000000     0.0000000

 ptrans:     0.0000000     0.0000000     0.0000000
 rotmap:
 (   1->   1)  (   2->   2)  (   3->   3) 


 irot  :  20
 --------------------------------------------------------------------
 isymop:   1  -1   0
           0  -1   0
           0   0   1

 gtrans:     0.0000000     0.0000000     0.0000000

 ptrans:     0.0000000     0.0000000     0.0000000
 rotmap:
 (   1->   2)  (   2->   1)  (   3->   3) 


 irot  :  21
 --------------------------------------------------------------------
 isymop:   0   1   0
           1   0   0
           0   0  -1

 gtrans:     0.0000000     0.0000000     0.0000000

 ptrans:     0.0000000     0.0000000     0.0000000
 rotmap:
 (   1->   2)  (   2->   1)  (   3->   3) 


 irot  :  22
 --------------------------------------------------------------------
 isymop:   0  -1   0
          -1   0   0
           0   0   1

 gtrans:     0.0000000     0.0000000     0.0000000

 ptrans:     0.0000000     0.0000000     0.0000000
 rotmap:
 (   1->   1)  (   2->   2)  (   3->   3) 


 irot  :  23
 --------------------------------------------------------------------
 isymop:   1   0   0
           1  -1   0
           0   0  -1

 gtrans:     0.0000000     0.0000000     0.0000000

 ptrans:     0.0000000     0.0000000     0.0000000
 rotmap:
 (   1->   1)  (   2->   2)  (   3->   3) 


 irot  :  24
 --------------------------------------------------------------------
 isymop:  -1   0   0
          -1   1   0
           0   0   1

 gtrans:     0.0000000     0.0000000     0.0000000

 ptrans:     0.0000000     0.0000000     0.0000000
 rotmap:
 (   1->   2)  (   2->   1)  (   3->   3) 


 KPOINTS: pymatgen generated KPOINTS with grid den

Automatic generation of k-mesh.
Space group operators:
 irot       det(A)        alpha          n_x          n_y          n_z        tau_x        tau_y        tau_z
    1     1.000000     0.000000     1.000000     0.000000     0.000000     0.000000     0.000000     0.000000
    2    -1.000000     0.000000     1.000000     0.000000     0.000000     0.000000     0.000000     0.000000
    3     1.000000    60.000000     0.000000     0.000000    -1.000000     0.000000     0.000000     0.000000
    4    -1.000000    60.000000     0.000000     0.000000    -1.000000     0.000000     0.000000     0.000000
    5     1.000000   120.000000     0.000000     0.000000    -1.000000     0.000000     0.000000     0.000000
    6    -1.000000   120.000000     0.000000     0.000000    -1.000000     0.000000     0.000000     0.000000
    7     1.000000   180.000000     0.000000     0.000000     1.000000     0.000000     0.000000     0.000000
    8    -1.000000   180.000000     0.000000     0.000000     1.000000     0.000000     0.000000     0.000000
    9     1.000000   120.000000     0.000000     0.000000     1.000000     0.000000     0.000000     0.000000
   10    -1.000000   120.000000     0.000000     0.000000     1.000000     0.000000     0.000000     0.000000
   11     1.000000    60.000000     0.000000     0.000000     1.000000     0.000000     0.000000     0.000000
   12    -1.000000    60.000000     0.000000     0.000000     1.000000     0.000000     0.000000     0.000000
   13     1.000000   180.000000     1.000000     0.000000     0.000000     0.000000     0.000000     0.000000
   14    -1.000000   180.000000     1.000000     0.000000     0.000000     0.000000     0.000000     0.000000
   15     1.000000   180.000000     0.866025    -0.500000     0.000000     0.000000     0.000000     0.000000
   16    -1.000000   180.000000     0.866025    -0.500000     0.000000     0.000000     0.000000     0.000000
   17     1.000000   179.999999     0.500000    -0.866025     0.000000     0.000000     0.000000     0.000000
   18    -1.000000   179.999999     0.500000    -0.866025     0.000000     0.000000     0.000000     0.000000
   19     1.000000   179.999999     0.000000     1.000000     0.000000     0.000000     0.000000     0.000000
   20    -1.000000   179.999999     0.000000     1.000000     0.000000     0.000000     0.000000     0.000000
   21     1.000000   179.999999    -0.500000    -0.866025     0.000000     0.000000     0.000000     0.000000
   22    -1.000000   179.999999    -0.500000    -0.866025     0.000000     0.000000     0.000000     0.000000
   23     1.000000   180.000000     0.866025     0.500000     0.000000     0.000000     0.000000     0.000000
   24    -1.000000   180.000000     0.866025     0.500000     0.000000     0.000000     0.000000     0.000000
 
 Subroutine IBZKPT returns following result:
 ===========================================
 
 Found      6 irreducible k-points:
 
 Following reciprocal coordinates:
            Coordinates               Weight
  0.000000  0.000000  0.000000      1.000000
  0.333333  0.000000  0.000000      6.000000
  0.333333  0.333333  0.000000      2.000000
  0.000000  0.000000  0.500000      1.000000
  0.333333  0.000000  0.500000      6.000000
  0.333333  0.333333  0.500000      2.000000
 
 Following cartesian coordinates:
            Coordinates               Weight
  0.000000  0.000000  0.000000      1.000000
  0.109077  0.062975  0.000000      6.000000
  0.109077  0.188926  0.000000      2.000000
  0.000000  0.000000  0.142484      1.000000
  0.109077  0.062975  0.142484      6.000000
  0.109077  0.188926  0.142484      2.000000
 


--------------------------------------------------------------------------------------------------------




 Dimension of arrays:
   k-points           NKPTS =      6   k-points in BZ     NKDIM =      6   number of bands    NBANDS=     11
   number of dos      NEDOS =    301   number of ions     NIONS =      3
   non local maximal  LDIM  =      5   non local SUM 2l+1 LMDIM =     13
   total plane-waves  NPLWV =   9600
   max r-space proj   IRMAX =   3411   max aug-charges    IRDMAX=   6865
   dimension x,y,z NGX =    20 NGY =   20 NGZ =   24
   dimension x,y,z NGXF=    40 NGYF=   40 NGZF=   48
   support grid    NGXF=    40 NGYF=   40 NGZF=   48
   ions per type =               2   1
 NGX,Y,Z   is equivalent  to a cutoff of  10.88, 10.88, 11.37 a.u.
 NGXF,Y,Z  is equivalent  to a cutoff of  21.76, 21.76, 22.74 a.u.


 I would recommend the setting:
   dimension x,y,z NGX =    20 NGY =   20 NGZ =   23
 SYSTEM =  unknown system                          
 POSCAR =  Mg1 B2                                  

 Startparameter for this run:
   NWRITE =      3    write-flag & timer
   PREC   = accura    normal or accurate (medium, high low for compatibility)
   ISTART =      1    job   : 0-new  1-cont  2-samecut
   ICHARG =     11    charge: 1-file 2-atom 10-const
   ISPIN  =      1    spin polarized calculation?
   LNONCOLLINEAR =      F non collinear calculations
   LSORBIT =      F    spin-orbit coupling
   INIWAV =      1    electr: 0-lowe 1-rand  2-diag
   LASPH  =      F    aspherical Exc in radial PAW
   METAGGA=      F    non-selfconsistent MetaGGA calc.

 Electronic Relaxation 1
   ENCUT  =  403.9 eV  29.69 Ry    5.45 a.u.   5.01  5.01  5.75*2*pi/ulx,y,z
   ENINI  =  403.9     initial cutoff
   ENAUG  =  758.8 eV  augmentation charge cutoff
   NELM   =    100;   NELMIN=  5; NELMDL=  0     # of ELM steps 
   EDIFF  = 0.1E-06   stopping-criterion for ELM
   LREAL  =      T    real-space projection
   NLSPLINE    = F    spline interpolate recip. space projectors
   LCOMPAT=      F    compatible to vasp.4.4
   GGA_COMPAT  = T    GGA compatible to vasp.4.4-vasp.4.6
   LMAXPAW     = -100 max onsite density
   LMAXMIX     =    2 max onsite mixed and CHGCAR
   VOSKOWN=      0    Vosko Wilk Nusair interpolation
   ROPT   =   -0.00025  -0.00025
 Ionic relaxation
   EDIFFG = 0.1E-05   stopping-criterion for IOM
   NSW    =      0    number of steps for IOM
   NBLOCK =      1;   KBLOCK =      1    inner block; outer block 
   IBRION =     -1    ionic relax: 0-MD 1-quasi-New 2-CG
   NFREE  =      0    steps in history (QN), initial steepest desc. (CG)
   ISIF   =      3    stress and relaxation
   IWAVPR =     10    prediction:  0-non 1-charg 2-wave 3-comb
   ISYM   =      2    0-nonsym 1-usesym 2-fastsym
   LCORR  =      T    Harris-Foulkes like correction to forces

   POTIM  = 0.5000    time-step for ionic-motion
   TEIN   =    0.0    initial temperature
   TEBEG  =    0.0;   TEEND  =   0.0 temperature during run
   SMASS  =  -3.00    Nose mass-parameter (am)
   estimated Nose-frequenzy (Omega)   =  0.10E-29 period in steps =****** mass=  -0.213E-27a.u.
   SCALEE = 1.0000    scale energy and forces
   NPACO  =    256;   APACO  = 16.0  distance and # of slots for P.C.
   PSTRESS=    0.0 pullay stress

  Mass of Ions in am
   POMASS =  10.81 24.30
  Ionic Valenz
   ZVAL   =   3.00  8.00
  Atomic Wigner-Seitz radii
   RWIGS  =  -1.00 -1.00
  virtual crystal weights 
   VCA    =   1.00  1.00
   NELECT =      14.0000    total number of electrons
   NUPDOWN=      -1.0000    fix difference up-down

 DOS related values:
   EMIN   =  10.00;   EMAX   =-10.00  energy-range for DOS
   EFERMI =   0.00
   ISMEAR =     1;   SIGMA  =   0.10  broadening in eV -4-tet -1-fermi 0-gaus

 Electronic relaxation 2 (details)
   IALGO  =     68    algorithm
   LDIAG  =      T    sub-space diagonalisation (order eigenvalues)
   LSUBROT=      F    optimize rotation matrix (better conditioning)
   TURBO    =      0    0=normal 1=particle mesh
   IRESTART =      0    0=no restart 2=restart with 2 vectors
   NREBOOT  =      0    no. of reboots
   NMIN     =      0    reboot dimension
   EREF     =   0.00    reference energy to select bands
   IMIX   =      4    mixing-type and parameters
     AMIX     =   0.40;   BMIX     =  1.00
     AMIX_MAG =   1.60;   BMIX_MAG =  1.00
     AMIN     =   0.10
     WC   =   100.;   INIMIX=   1;  MIXPRE=   1;  MAXMIX= -45

 Intra band minimization:
   WEIMIN = 0.0000     energy-eigenvalue tresh-hold
   EBREAK =  0.23E-08  absolut break condition
   DEPER  =   0.30     relativ break condition  

   TIME   =   0.40     timestep for ELM

  volume/ion in A,a.u.               =       9.46        63.84
  Fermi-wavevector in a.u.,A,eV,Ry     =   1.293524  2.444407 22.765339  1.673205
  Thomas-Fermi vector in A             =   2.425164

 Write flags
   LWAVE  =      T    write WAVECAR
   LCHARG =      T    write CHGCAR
   LVTOT  =      F    write LOCPOT, total local potential
   LVHAR  =      F    write LOCPOT, Hartree potential only
   LELF   =      F    write electronic localiz. function (ELF)
   LORBIT =      0    0 simple, 1 ext, 2 COOP (PROOUT)


 Dipole corrections
   LMONO  =      F    monopole corrections only (constant potential shift)
   LDIPOL =      F    correct potential (dipole corrections)
   IDIPOL =      0    1-x, 2-y, 3-z, 4-all directions 
   EPSILON=  1.0000000 bulk dielectric constant

 Exchange correlation treatment:
   GGA     =    --    GGA type
   LEXCH   =     8    internal setting for exchange type
   VOSKOWN=      0    Vosko Wilk Nusair interpolation
   LHFCALC =     F    Hartree Fock is set to
   LHFONE  =     F    Hartree Fock one center treatment
   AEXX    =    0.0000 exact exchange contribution

 Linear response parameters
   LEPSILON=     F    determine dielectric tensor
   LRPA    =     F    only Hartree local field effects (RPA)
   LNABLA  =     F    use nabla operator in PAW spheres
   LVEL    =     F    velocity operator in full k-point grid
   LINTERFAST=   F  fast interpolation
   KINTER  =     0    interpolate to denser k-point grid
   CSHIFT  =0.1000    complex shift for real part using Kramers Kronig
   OMEGAMAX=  -1.0    maximum frequency
   DEG_THRESHOLD= 0.2000000E-02 threshold for treating states as degnerate
   RTIME   =    0.100 relaxation time in fs

 Orbital magnetization related:
   ORBITALMAG=     F  switch on orbital magnetization
   LCHIMAG   =     F  perturbation theory with respect to B field
   DQ        =  0.001000  dq finite difference perturbation B field



--------------------------------------------------------------------------------------------------------


 Static calculation
 charge density and potential remain constant during run
 non-spin polarized calculation
 RMM-DIIS sequential band-by-band and
  variant of blocked Davidson during initial phase
 perform sub-space diagonalisation
    before iterative eigenvector-optimisation
 no mixing
 using additional bands            4
 real space projection scheme for non local part
 use partial core corrections
 calculate Harris-corrections to forces   (improved forces if not selfconsistent)
 use gradient corrections 
 WARNING: stress and forces are not correct
  (second derivative of E(xc) not defined)
 use of overlap-Matrix (Vanderbilt PP)
 Methfessel and Paxton  Order N= 1 SIGMA  =   0.10


--------------------------------------------------------------------------------------------------------


  energy-cutoff  :      403.93
  volume of cell :       28.38
      direct lattice vectors                 reciprocal lattice vectors
     3.055956464 -0.000000000 -0.000000000     0.327229793  0.188926206 -0.000000000
    -1.527978232  2.646535967 -0.000000000     0.000000000  0.377852413 -0.000000000
     0.000000000  0.000000000  3.509164603     0.000000000  0.000000000  0.284968109

  length of vectors
     3.055956464  3.055956496  3.509164603     0.377852416  0.377852413  0.284968109



 old parameters found on file WAVECAR:
  energy-cutoff  :      403.93
  volume of cell :       28.38
      direct lattice vectors                 reciprocal lattice vectors
     3.055956464 -0.000000000 -0.000000000     0.327229793  0.188926206 -0.000000000
    -1.527978232  2.646535967 -0.000000000     0.000000000  0.377852413 -0.000000000
     0.000000000  0.000000000  3.509164603     0.000000000  0.000000000  0.284968109

  length of vectors


 k-points in units of 2pi/SCALE and weight: pymatgen generated KPOINTS with grid den
   0.00000000  0.00000000  0.00000000       0.056
   0.10907660  0.06297540  0.00000000       0.333
   0.10907660  0.18892621  0.00000000       0.111
   0.00000000  0.00000000  0.14248405       0.056
   0.10907660  0.06297540  0.14248405       0.333
   0.10907660  0.18892621  0.14248405       0.111

 k-points in reciprocal lattice and weights: pymatgen generated KPOINTS with grid den
   0.00000000  0.00000000  0.00000000       0.056
   0.33333333  0.00000000  0.00000000       0.333
   0.33333333  0.33333333  0.00000000       0.111
   0.00000000  0.00000000  0.50000000       0.056
   0.33333333  0.00000000  0.50000000       0.333
   0.33333333  0.33333333  0.50000000       0.111

 position of ions in fractional coordinates (direct lattice) 
   0.66666700  0.33333300  0.50000000
   0.33333300  0.66666700  0.50000000
   0.00000000  0.00000000  0.00000000

 position of ions in cartesian coordinates  (Angst):
   1.52797976  0.88217777  1.75458230
  -0.00000153  1.76435819  1.75458230
   0.00000000  0.00000000  0.00000000



--------------------------------------------------------------------------------------------------------


 k-point  1 :   0.0000 0.0000 0.0000  plane waves:     527
 k-point  2 :   0.3333 0.0000 0.0000  plane waves:     517
 k-point  3 :   0.3333 0.3333 0.0000  plane waves:     537
 k-point  4 :   0.0000 0.0000 0.5000  plane waves:     504
 k-point  5 :   0.3333 0.0000 0.5000  plane waves:     522
 k-point  6 :   0.3333 0.3333 0.5000  plane waves:     534

 maximum and minimum number of plane-waves per node :       537      504

 maximum number of plane-waves:       537
 maximum index in each direction: 
   IXMAX=    4   IYMAX=    5   IZMAX=    5
   IXMIN=   -5   IYMIN=   -5   IZMIN=   -6

 NGX is ok and might be reduce to  20
 WARNING: aliasing errors must be expected set NGY to  22 to avoid them
 NGZ is ok and might be reduce to  24
 aliasing errors are usually negligible using standard VASP settings
 and one can safely disregard these warnings

 serial   3D FFT for wavefunctions
 parallel 3D FFT for charge:
    minimum data exchange during FFTs selected (reduces bandwidth)


 total amount of memory used by VASP on root node    39088. kBytes
========================================================================

   base      :      30000. kBytes
   nonlr-proj:        924. kBytes
   fftplans  :       2724. kBytes
   grid      :       4819. kBytes
   one-center:         24. kBytes
   wavefun   :        597. kBytes

     INWAV:  cpu time    0.0016: real time    0.0016
 initial charge density was supplied:
 number of electron      13.9999998 magnetization 
 keeping initial charge density in first step


--------------------------------------------------------------------------------------------------------


 Maximum index for non-local projection operator         3223
 Maximum index for augmentation-charges         6491 (set IRDMAX)


--------------------------------------------------------------------------------------------------------


 First call to EWALD:  gamma=   0.581
 Maximum number of real-space cells 3x 3x 2
 Maximum number of reciprocal cells 3x 3x 3

 FEWALD executed in parallel
    FEWALD:  cpu time    0.0009: real time    0.0009


----------------------------------------- Iteration    1(   1)  ---------------------------------------


    POTLOK:  cpu time    0.0571: real time    0.0572
    SETDIJ:  cpu time    0.0068: real time    0.0068
     EDDAV:  cpu time    0.1096: real time    0.1097
       DOS:  cpu time    0.0002: real time    0.0002
    --------------------------------------------
      LOOP:  cpu time    0.1745: real time    0.1748

 eigenvalue-minimisations  :    87
 total energy-change (2. order) :-0.1483504E+02  (-0.1482526E-10)
 number of electron      13.9999998 magnetization 
 augmentation part       13.9999998 magnetization 

 Free energy of the ion-electron system (eV)
  ---------------------------------------------------
  alpha Z        PSCENC =        56.97176874
  Ewald energy   TEWEN  =      -728.89024064
  -Hartree energ DENC   =      -249.34950119
  -exchange      EXHF   =         0.00000000
  -V(xc)+E(xc)   XCENC  =        41.66672086
  PAW double counting   =      1062.39314236    -1178.38220152
  entropy T*S    EENTRO =         0.00064421
  eigenvalues    EBANDS =      -218.24185334
  atomic energy  EATOM  =      1198.99647800
  Solvation  Ediel_sol  =         0.00000000
  ---------------------------------------------------
  free energy    TOTEN  =       -14.83504252 eV

  energy without entropy =      -14.83568674  energy(sigma->0) =      -14.83525726


--------------------------------------------------------------------------------------------------------




 average (electrostatic) potential at core
  the test charge radii are     0.7672  0.8294
  (the norm of the test charge is              1.0000)
       1 -26.2694       2 -26.2694       3 -41.7911



 E-fermi :   5.9940     XC(G=0): -11.2463     alpha+bet :-13.5977


 k-point     1 :       0.0000    0.0000    0.0000
  band No.  band energies     occupation 
      1     -36.6854      2.00000
      2     -36.6854      2.00000
      3     -36.6819      2.00000
      4      -7.4074      2.00000
      5       2.1300      2.00000
      6       5.5377      2.00000
      7       5.5377      2.00000
      8       6.8053     -0.00000
      9      11.5983      0.00000
     10      11.5984      0.00000
     11      13.5750      0.00000

 k-point     2 :       0.3333    0.0000    0.0000
  band No.  band energies     occupation 
      1     -36.7185      2.00000
      2     -36.6910      2.00000
      3     -36.6706      2.00000
      4      -5.4688      2.00000
      5       0.0257      2.00000
      6       3.4102      2.00000
      7       3.9638      2.00000
      8       8.4424     -0.00000
      9      10.3252      0.00000
     10      10.4204      0.00000
     11      13.9608      0.00000

 k-point     3 :       0.3333    0.3333    0.0000
  band No.  band energies     occupation 
      1     -36.7183      2.00000
      2     -36.7183      2.00000
      3     -36.6703      2.00000
      4      -2.1499      2.00000
      5      -2.1498      2.00000
      6      -0.7939      2.00000
      7       6.9461     -0.00000
      8       6.9461     -0.00000
      9      11.3965      0.00000
     10      11.3965      0.00000
     11      14.0580      0.00000

 k-point     4 :       0.0000    0.0000    0.5000
  band No.  band energies     occupation 
      1     -36.6843      2.00000
      2     -36.6801      2.00000
      3     -36.6801      2.00000
      4      -6.1108      2.00000
      5      -2.3650      2.00000
      6       5.9097      2.00016
      7       5.9098      1.99984
      8      11.9049      0.00000
      9      11.9050      0.00000
     10      13.3069      0.00000
     11      15.1723      0.00000

 k-point     5 :       0.3333    0.0000    0.5000
  band No.  band energies     occupation 
      1     -36.7181      2.00000
      2     -36.6903      2.00000
      3     -36.6778      2.00000
      4      -4.3557      2.00000
      5      -0.1927      2.00000
      6       0.7672      2.00000
      7       3.7012      2.00000
      8       6.4993     -0.00000
      9      11.2720      0.00000
     10      14.7234      0.00000
     11      14.7898      0.00000

 k-point     6 :       0.3333    0.3333    0.5000
  band No.  band energies     occupation 
      1     -36.7180      2.00000
      2     -36.7180      2.00000
      3     -36.6763      2.00000
      4      -1.2681      2.00000
      5      -1.2680      2.00000
      6      -0.1226      2.00000
      7       3.1536      2.00000
      8       3.1536      2.00000
      9       8.8710      0.00000
     10      17.0038      0.00000
     11      17.3323      0.00000


--------------------------------------------------------------------------------------------------------


 soft charge-density along one line, spin component           1
         0         1         2         3         4         5         6         7         8         9
 total charge-density along one line

 pseudopotential strength for first ion, spin component:           1
  6.206   9.432  -0.000   0.000   0.000  -0.000   0.000   0.000
  9.432  14.329  -0.000   0.000   0.000  -0.000   0.000   0.000
 -0.000  -0.000  -2.065   0.000  -0.000  -3.482   0.000  -0.000
  0.000   0.000   0.000  -2.068   0.000   0.000  -3.486   0.000
  0.000   0.000  -0.000   0.000  -2.065  -0.000   0.000  -3.482
 -0.000  -0.000  -3.482   0.000  -0.000  -5.669   0.000  -0.000
  0.000   0.000   0.000  -3.486   0.000   0.000  -5.676   0.000
  0.000   0.000  -0.000   0.000  -3.482  -0.000   0.000  -5.669
 total augmentation occupancy for first ion, spin component:           1
  2.000   0.000   0.000   0.000   0.000   0.000   0.000   0.000
  0.000   0.000   0.000   0.000   0.000   0.000   0.000   0.000
  0.000   0.000   0.333   0.000  -0.000   0.000   0.000   0.000
  0.000   0.000   0.000   0.333   0.000   0.000   0.000   0.000
  0.000   0.000  -0.000   0.000   0.333   0.000   0.000   0.000
  0.000   0.000   0.000   0.000   0.000   0.000   0.000   0.000
  0.000   0.000   0.000   0.000   0.000   0.000   0.000   0.000
  0.000   0.000   0.000   0.000   0.000   0.000   0.000   0.000


----------------------------------------- Iteration    1(   2)  ---------------------------------------


    EDDIAG:  cpu time    0.0208: real time    0.0209
  RMM-DIIS:  cpu time    0.0533: real time    0.0533
    ORTHCH:  cpu time    0.0016: real time    0.0016
       DOS:  cpu time    0.0002: real time    0.0002
    --------------------------------------------
      LOOP:  cpu time    0.0797: real time    0.0798

 eigenvalue-minimisations  :    14
 total energy-change (2. order) :-0.7476046E-09  ( 0.0000000E+00)
 number of electron      13.9999998 magnetization 
 augmentation part       13.9999998 magnetization 

 Free energy of the ion-electron system (eV)
  ---------------------------------------------------
  alpha Z        PSCENC =        56.97176874
  Ewald energy   TEWEN  =      -728.89024064
  -Hartree energ DENC   =      -249.34950119
  -exchange      EXHF   =         0.00000000
  -V(xc)+E(xc)   XCENC  =        41.66672086
  PAW double counting   =      1062.39314236    -1178.38220152
  entropy T*S    EENTRO =         0.00064421
  eigenvalues    EBANDS =      -218.24185335
  atomic energy  EATOM  =      1198.99647800
  Solvation  Ediel_sol  =         0.00000000
  ---------------------------------------------------
  free energy    TOTEN  =       -14.83504252 eV

  energy without entropy =      -14.83568674  energy(sigma->0) =      -14.83525726


--------------------------------------------------------------------------------------------------------




 average (electrostatic) potential at core
  the test charge radii are     0.7672  0.8294
  (the norm of the test charge is              1.0000)
       1 -26.2694       2 -26.2694       3 -41.7911



 E-fermi :   5.9940     XC(G=0): -11.2463     alpha+bet :-13.5977


 k-point     1 :       0.0000    0.0000    0.0000
  band No.  band energies     occupation 
      1     -36.6854      2.00000
      2     -36.6854      2.00000
      3     -36.6819      2.00000
      4      -7.4074      2.00000
      5       2.1300      2.00000
      6       5.5377      2.00000
      7       5.5377      2.00000
      8       6.8053     -0.00000
      9      11.5983      0.00000
     10      11.5984      0.00000
     11      13.5750      0.00000

 k-point     2 :       0.3333    0.0000    0.0000
  band No.  band energies     occupation 
      1     -36.7185      2.00000
      2     -36.6910      2.00000
      3     -36.6706      2.00000
      4      -5.4688      2.00000
      5       0.0257      2.00000
      6       3.4102      2.00000
      7       3.9638      2.00000
      8       8.4424     -0.00000
      9      10.3252      0.00000
     10      10.4204      0.00000
     11      13.9608      0.00000

 k-point     3 :       0.3333    0.3333    0.0000
  band No.  band energies     occupation 
      1     -36.7183      2.00000
      2     -36.7183      2.00000
      3     -36.6703      2.00000
      4      -2.1499      2.00000
      5      -2.1498      2.00000
      6      -0.7939      2.00000
      7       6.9461     -0.00000
      8       6.9461     -0.00000
      9      11.3965      0.00000
     10      11.3965      0.00000
     11      14.0580      0.00000

 k-point     4 :       0.0000    0.0000    0.5000
  band No.  band energies     occupation 
      1     -36.6843      2.00000
      2     -36.6801      2.00000
      3     -36.6801      2.00000
      4      -6.1108      2.00000
      5      -2.3650      2.00000
      6       5.9097      2.00016
      7       5.9098      1.99984
      8      11.9049      0.00000
      9      11.9050      0.00000
     10      13.3069      0.00000
     11      15.1723      0.00000

 k-point     5 :       0.3333    0.0000    0.5000
  band No.  band energies     occupation 
      1     -36.7181      2.00000
      2     -36.6903      2.00000
      3     -36.6778      2.00000
      4      -4.3557      2.00000
      5      -0.1927      2.00000
      6       0.7672      2.00000
      7       3.7012      2.00000
      8       6.4993     -0.00000
      9      11.2720      0.00000
     10      14.7234      0.00000
     11      14.7898      0.00000

 k-point     6 :       0.3333    0.3333    0.5000
  band No.  band energies     occupation 
      1     -36.7180      2.00000
      2     -36.7180      2.00000
      3     -36.6763      2.00000
      4      -1.2681      2.00000
      5      -1.2680      2.00000
      6      -0.1226      2.00000
      7       3.1536      2.00000
      8       3.1536      2.00000
      9       8.8710      0.00000
     10      17.0038      0.00000
     11      17.3323      0.00000


--------------------------------------------------------------------------------------------------------


 soft charge-density along one line, spin component           1
         0         1         2         3         4         5         6         7         8         9
 total charge-density along one line

 pseudopotential strength for first ion, spin component:           1
  6.206   9.432  -0.000   0.000   0.000  -0.000   0.000   0.000
  9.432  14.329  -0.000   0.000   0.000  -0.000   0.000   0.000
 -0.000  -0.000  -2.065   0.000  -0.000  -3.482   0.000  -0.000
  0.000   0.000   0.000  -2.068   0.000   0.000  -3.486   0.000
  0.000   0.000  -0.000   0.000  -2.065  -0.000   0.000  -3.482
 -0.000  -0.000  -3.482   0.000  -0.000  -5.669   0.000  -0.000
  0.000   0.000   0.000  -3.486   0.000   0.000  -5.676   0.000
  0.000   0.000  -0.000   0.000  -3.482  -0.000   0.000  -5.669
 total augmentation occupancy for first ion, spin component:           1
  2.000   0.000   0.000   0.000   0.000   0.000   0.000   0.000
  0.000   0.000   0.000   0.000   0.000   0.000   0.000   0.000
  0.000   0.000   0.333   0.000  -0.000   0.000   0.000   0.000
  0.000   0.000   0.000   0.333   0.000   0.000   0.000   0.000
  0.000   0.000  -0.000   0.000   0.333   0.000   0.000   0.000
  0.000   0.000   0.000   0.000   0.000   0.000   0.000   0.000
  0.000   0.000   0.000   0.000   0.000   0.000   0.000   0.000
  0.000   0.000   0.000   0.000   0.000   0.000   0.000   0.000


----------------------------------------- Iteration    1(   3)  ---------------------------------------


    EDDIAG:  cpu time    0.0212: real time    0.0213
  RMM-DIIS:  cpu time    0.0526: real time    0.0526
    ORTHCH:  cpu time    0.0018: real time    0.0017
       DOS:  cpu time    0.0002: real time    0.0002
    --------------------------------------------
      LOOP:  cpu time    0.0793: real time    0.0794

 eigenvalue-minimisations  :    11
 total energy-change (2. order) : 0.3478817E-10  ( 0.0000000E+00)
 number of electron      13.9999998 magnetization 
 augmentation part       13.9999998 magnetization 

 Free energy of the ion-electron system (eV)
  ---------------------------------------------------
  alpha Z        PSCENC =        56.97176874
  Ewald energy   TEWEN  =      -728.89024064
  -Hartree energ DENC   =      -249.34950119
  -exchange      EXHF   =         0.00000000
  -V(xc)+E(xc)   XCENC  =        41.66672086
  PAW double counting   =      1062.39314236    -1178.38220152
  entropy T*S    EENTRO =         0.00064421
  eigenvalues    EBANDS =      -218.24185335
  atomic energy  EATOM  =      1198.99647800
  Solvation  Ediel_sol  =         0.00000000
  ---------------------------------------------------
  free energy    TOTEN  =       -14.83504252 eV

  energy without entropy =      -14.83568674  energy(sigma->0) =      -14.83525726


--------------------------------------------------------------------------------------------------------




 average (electrostatic) potential at core
  the test charge radii are     0.7672  0.8294
  (the norm of the test charge is              1.0000)
       1 -26.2694       2 -26.2694       3 -41.7911



 E-fermi :   5.9940     XC(G=0): -11.2463     alpha+bet :-13.5977


 k-point     1 :       0.0000    0.0000    0.0000
  band No.  band energies     occupation 
      1     -36.6854      2.00000
      2     -36.6854      2.00000
      3     -36.6819      2.00000
      4      -7.4074      2.00000
      5       2.1300      2.00000
      6       5.5377      2.00000
      7       5.5377      2.00000
      8       6.8053     -0.00000
      9      11.5983      0.00000
     10      11.5984      0.00000
     11      13.5750      0.00000

 k-point     2 :       0.3333    0.0000    0.0000
  band No.  band energies     occupation 
      1     -36.7185      2.00000
      2     -36.6910      2.00000
      3     -36.6706      2.00000
      4      -5.4688      2.00000
      5       0.0257      2.00000
      6       3.4102      2.00000
      7       3.9638      2.00000
      8       8.4424     -0.00000
      9      10.3252      0.00000
     10      10.4204      0.00000
     11      13.9608      0.00000

 k-point     3 :       0.3333    0.3333    0.0000
  band No.  band energies     occupation 
      1     -36.7183      2.00000
      2     -36.7183      2.00000
      3     -36.6703      2.00000
      4      -2.1499      2.00000
      5      -2.1498      2.00000
      6      -0.7939      2.00000
      7       6.9461     -0.00000
      8       6.9461     -0.00000
      9      11.3965      0.00000
     10      11.3965      0.00000
     11      14.0580      0.00000

 k-point     4 :       0.0000    0.0000    0.5000
  band No.  band energies     occupation 
      1     -36.6843      2.00000
      2     -36.6801      2.00000
      3     -36.6801      2.00000
      4      -6.1108      2.00000
      5      -2.3650      2.00000
      6       5.9097      2.00016
      7       5.9098      1.99984
      8      11.9049      0.00000
      9      11.9050      0.00000
     10      13.3069      0.00000
     11      15.1723      0.00000

 k-point     5 :       0.3333    0.0000    0.5000
  band No.  band energies     occupation 
      1     -36.7181      2.00000
      2     -36.6903      2.00000
      3     -36.6778      2.00000
      4      -4.3557      2.00000
      5      -0.1927      2.00000
      6       0.7672      2.00000
      7       3.7012      2.00000
      8       6.4993     -0.00000
      9      11.2720      0.00000
     10      14.7234      0.00000
     11      14.7898      0.00000

 k-point     6 :       0.3333    0.3333    0.5000
  band No.  band energies     occupation 
      1     -36.7180      2.00000
      2     -36.7180      2.00000
      3     -36.6763      2.00000
      4      -1.2681      2.00000
      5      -1.2680      2.00000
      6      -0.1226      2.00000
      7       3.1536      2.00000
      8       3.1536      2.00000
      9       8.8710      0.00000
     10      17.0038      0.00000
     11      17.3323      0.00000


--------------------------------------------------------------------------------------------------------


 soft charge-density along one line, spin component           1
         0         1         2         3         4         5         6         7         8         9
 total charge-density along one line

 pseudopotential strength for first ion, spin component:           1
  6.206   9.432  -0.000   0.000   0.000  -0.000   0.000   0.000
  9.432  14.329  -0.000   0.000   0.000  -0.000   0.000   0.000
 -0.000  -0.000  -2.065   0.000  -0.000  -3.482   0.000  -0.000
  0.000   0.000   0.000  -2.068   0.000   0.000  -3.486   0.000
  0.000   0.000  -0.000   0.000  -2.065  -0.000   0.000  -3.482
 -0.000  -0.000  -3.482   0.000  -0.000  -5.669   0.000  -0.000
  0.000   0.000   0.000  -3.486   0.000   0.000  -5.676   0.000
  0.000   0.000  -0.000   0.000  -3.482  -0.000   0.000  -5.669
 total augmentation occupancy for first ion, spin component:           1
  2.000   0.000   0.000   0.000   0.000   0.000   0.000   0.000
  0.000   0.000   0.000   0.000   0.000   0.000   0.000   0.000
  0.000   0.000   0.333   0.000  -0.000   0.000   0.000   0.000
  0.000   0.000   0.000   0.333   0.000   0.000   0.000   0.000
  0.000   0.000  -0.000   0.000   0.333   0.000   0.000   0.000
  0.000   0.000   0.000   0.000   0.000   0.000   0.000   0.000
  0.000   0.000   0.000   0.000   0.000   0.000   0.000   0.000
  0.000   0.000   0.000   0.000   0.000   0.000   0.000   0.000


----------------------------------------- Iteration    1(   4)  ---------------------------------------


    EDDIAG:  cpu time    0.0215: real time    0.0217
  RMM-DIIS:  cpu time    0.0517: real time    0.0519
    ORTHCH:  cpu time    0.0017: real time    0.0016
       DOS:  cpu time    0.0002: real time    0.0002
    --------------------------------------------
      LOOP:  cpu time    0.0789: real time    0.0793

 eigenvalue-minimisations  :    10
 total energy-change (2. order) : 0.3021796E-09  ( 0.0000000E+00)
 number of electron      13.9999998 magnetization 
 augmentation part       13.9999998 magnetization 

 Free energy of the ion-electron system (eV)
  ---------------------------------------------------
  alpha Z        PSCENC =        56.97176874
  Ewald energy   TEWEN  =      -728.89024064
  -Hartree energ DENC   =      -249.34950119
  -exchange      EXHF   =         0.00000000
  -V(xc)+E(xc)   XCENC  =        41.66672086
  PAW double counting   =      1062.39314236    -1178.38220152
  entropy T*S    EENTRO =         0.00064421
  eigenvalues    EBANDS =      -218.24185334
  atomic energy  EATOM  =      1198.99647800
  Solvation  Ediel_sol  =         0.00000000
  ---------------------------------------------------
  free energy    TOTEN  =       -14.83504252 eV

  energy without entropy =      -14.83568674  energy(sigma->0) =      -14.83525726


--------------------------------------------------------------------------------------------------------




 average (electrostatic) potential at core
  the test charge radii are     0.7672  0.8294
  (the norm of the test charge is              1.0000)
       1 -26.2694       2 -26.2694       3 -41.7911



 E-fermi :   5.9940     XC(G=0): -11.2463     alpha+bet :-13.5977


 k-point     1 :       0.0000    0.0000    0.0000
  band No.  band energies     occupation 
      1     -36.6854      2.00000
      2     -36.6854      2.00000
      3     -36.6819      2.00000
      4      -7.4074      2.00000
      5       2.1300      2.00000
      6       5.5377      2.00000
      7       5.5377      2.00000
      8       6.8053     -0.00000
      9      11.5983      0.00000
     10      11.5984      0.00000
     11      13.5750      0.00000

 k-point     2 :       0.3333    0.0000    0.0000
  band No.  band energies     occupation 
      1     -36.7185      2.00000
      2     -36.6910      2.00000
      3     -36.6706      2.00000
      4      -5.4688      2.00000
      5       0.0257      2.00000
      6       3.4102      2.00000
      7       3.9638      2.00000
      8       8.4424     -0.00000
      9      10.3252      0.00000
     10      10.4204      0.00000
     11      13.9608      0.00000

 k-point     3 :       0.3333    0.3333    0.0000
  band No.  band energies     occupation 
      1     -36.7183      2.00000
      2     -36.7183      2.00000
      3     -36.6703      2.00000
      4      -2.1499      2.00000
      5      -2.1498      2.00000
      6      -0.7939      2.00000
      7       6.9461     -0.00000
      8       6.9461     -0.00000
      9      11.3965      0.00000
     10      11.3965      0.00000
     11      14.0580      0.00000

 k-point     4 :       0.0000    0.0000    0.5000
  band No.  band energies     occupation 
      1     -36.6843      2.00000
      2     -36.6801      2.00000
      3     -36.6801      2.00000
      4      -6.1108      2.00000
      5      -2.3650      2.00000
      6       5.9097      2.00016
      7       5.9098      1.99984
      8      11.9049      0.00000
      9      11.9050      0.00000
     10      13.3069      0.00000
     11      15.1723      0.00000

 k-point     5 :       0.3333    0.0000    0.5000
  band No.  band energies     occupation 
      1     -36.7181      2.00000
      2     -36.6903      2.00000
      3     -36.6778      2.00000
      4      -4.3557      2.00000
      5      -0.1927      2.00000
      6       0.7672      2.00000
      7       3.7012      2.00000
      8       6.4993     -0.00000
      9      11.2720      0.00000
     10      14.7234      0.00000
     11      14.7898      0.00000

 k-point     6 :       0.3333    0.3333    0.5000
  band No.  band energies     occupation 
      1     -36.7180      2.00000
      2     -36.7180      2.00000
      3     -36.6763      2.00000
      4      -1.2681      2.00000
      5      -1.2680      2.00000
      6      -0.1226      2.00000
      7       3.1536      2.00000
      8       3.1536      2.00000
      9       8.8710      0.00000
     10      17.0038      0.00000
     11      17.3323      0.00000


--------------------------------------------------------------------------------------------------------


 soft charge-density along one line, spin component           1
         0         1         2         3         4         5         6         7         8         9
 total charge-density along one line

 pseudopotential strength for first ion, spin component:           1
  6.206   9.432  -0.000   0.000   0.000  -0.000   0.000   0.000
  9.432  14.329  -0.000   0.000   0.000  -0.000   0.000   0.000
 -0.000  -0.000  -2.065   0.000  -0.000  -3.482   0.000  -0.000
  0.000   0.000   0.000  -2.068   0.000   0.000  -3.486   0.000
  0.000   0.000  -0.000   0.000  -2.065  -0.000   0.000  -3.482
 -0.000  -0.000  -3.482   0.000  -0.000  -5.669   0.000  -0.000
  0.000   0.000   0.000  -3.486   0.000   0.000  -5.676   0.000
  0.000   0.000  -0.000   0.000  -3.482  -0.000   0.000  -5.669
 total augmentation occupancy for first ion, spin component:           1
  2.000   0.000   0.000   0.000   0.000   0.000   0.000   0.000
  0.000   0.000   0.000   0.000   0.000   0.000   0.000   0.000
  0.000   0.000   0.333   0.000  -0.000   0.000   0.000   0.000
  0.000   0.000   0.000   0.333   0.000   0.000   0.000   0.000
  0.000   0.000  -0.000   0.000   0.333   0.000   0.000   0.000
  0.000   0.000   0.000   0.000   0.000   0.000   0.000   0.000
  0.000   0.000   0.000   0.000   0.000   0.000   0.000   0.000
  0.000   0.000   0.000   0.000   0.000   0.000   0.000   0.000


----------------------------------------- Iteration    1(   5)  ---------------------------------------


    EDDIAG:  cpu time    0.0213: real time    0.0213
  RMM-DIIS:  cpu time    0.0489: real time    0.0494
    ORTHCH:  cpu time    0.0017: real time    0.0017
       DOS:  cpu time    0.0002: real time    0.0002
    --------------------------------------------
      LOOP:  cpu time    0.0760: real time    0.0765

 eigenvalue-minimisations  :     6
 total energy-change (2. order) : 0.4690719E-09  ( 0.0000000E+00)
 number of electron      13.9999998 magnetization 
 augmentation part       13.9999998 magnetization 

 Free energy of the ion-electron system (eV)
  ---------------------------------------------------
  alpha Z        PSCENC =        56.97176874
  Ewald energy   TEWEN  =      -728.89024064
  -Hartree energ DENC   =      -249.34950119
  -exchange      EXHF   =         0.00000000
  -V(xc)+E(xc)   XCENC  =        41.66672086
  PAW double counting   =      1062.39314236    -1178.38220152
  entropy T*S    EENTRO =         0.00064421
  eigenvalues    EBANDS =      -218.24185334
  atomic energy  EATOM  =      1198.99647800
  Solvation  Ediel_sol  =         0.00000000
  ---------------------------------------------------
  free energy    TOTEN  =       -14.83504252 eV

  energy without entropy =      -14.83568674  energy(sigma->0) =      -14.83525726


--------------------------------------------------------------------------------------------------------




 average (electrostatic) potential at core
  the test charge radii are     0.7672  0.8294
  (the norm of the test charge is              1.0000)
       1 -26.2694       2 -26.2694       3 -41.7911



 E-fermi :   5.9940     XC(G=0): -11.2463     alpha+bet :-13.5977


 k-point     1 :       0.0000    0.0000    0.0000
  band No.  band energies     occupation 
      1     -36.6854      2.00000
      2     -36.6854      2.00000
      3     -36.6819      2.00000
      4      -7.4074      2.00000
      5       2.1300      2.00000
      6       5.5377      2.00000
      7       5.5377      2.00000
      8       6.8053     -0.00000
      9      11.5983      0.00000
     10      11.5984      0.00000
     11      13.5750      0.00000

 k-point     2 :       0.3333    0.0000    0.0000
  band No.  band energies     occupation 
      1     -36.7185      2.00000
      2     -36.6910      2.00000
      3     -36.6706      2.00000
      4      -5.4688      2.00000
      5       0.0257      2.00000
      6       3.4102      2.00000
      7       3.9638      2.00000
      8       8.4424     -0.00000
      9      10.3252      0.00000
     10      10.4204      0.00000
     11      13.9608      0.00000

 k-point     3 :       0.3333    0.3333    0.0000
  band No.  band energies     occupation 
      1     -36.7183      2.00000
      2     -36.7183      2.00000
      3     -36.6703      2.00000
      4      -2.1499      2.00000
      5      -2.1498      2.00000
      6      -0.7939      2.00000
      7       6.9461     -0.00000
      8       6.9461     -0.00000
      9      11.3965      0.00000
     10      11.3965      0.00000
     11      14.0580      0.00000

 k-point     4 :       0.0000    0.0000    0.5000
  band No.  band energies     occupation 
      1     -36.6843      2.00000
      2     -36.6801      2.00000
      3     -36.6801      2.00000
      4      -6.1108      2.00000
      5      -2.3650      2.00000
      6       5.9097      2.00016
      7       5.9098      1.99984
      8      11.9049      0.00000
      9      11.9050      0.00000
     10      13.3069      0.00000
     11      15.1723      0.00000

 k-point     5 :       0.3333    0.0000    0.5000
  band No.  band energies     occupation 
      1     -36.7181      2.00000
      2     -36.6903      2.00000
      3     -36.6778      2.00000
      4      -4.3557      2.00000
      5      -0.1927      2.00000
      6       0.7672      2.00000
      7       3.7012      2.00000
      8       6.4993     -0.00000
      9      11.2720      0.00000
     10      14.7234      0.00000
     11      14.7898      0.00000

 k-point     6 :       0.3333    0.3333    0.5000
  band No.  band energies     occupation 
      1     -36.7180      2.00000
      2     -36.7180      2.00000
      3     -36.6763      2.00000
      4      -1.2681      2.00000
      5      -1.2680      2.00000
      6      -0.1226      2.00000
      7       3.1536      2.00000
      8       3.1536      2.00000
      9       8.8710      0.00000
     10      17.0038      0.00000
     11      17.3323      0.00000


--------------------------------------------------------------------------------------------------------


 soft charge-density along one line, spin component           1
         0         1         2         3         4         5         6         7         8         9
 total charge-density along one line

 pseudopotential strength for first ion, spin component:           1
  6.206   9.432  -0.000   0.000   0.000  -0.000   0.000   0.000
  9.432  14.329  -0.000   0.000   0.000  -0.000   0.000   0.000
 -0.000  -0.000  -2.065   0.000  -0.000  -3.482   0.000  -0.000
  0.000   0.000   0.000  -2.068   0.000   0.000  -3.486   0.000
  0.000   0.000  -0.000   0.000  -2.065  -0.000   0.000  -3.482
 -0.000  -0.000  -3.482   0.000  -0.000  -5.669   0.000  -0.000
  0.000   0.000   0.000  -3.486   0.000   0.000  -5.676   0.000
  0.000   0.000  -0.000   0.000  -3.482  -0.000   0.000  -5.669
 total augmentation occupancy for first ion, spin component:           1
  2.000   0.000   0.000   0.000   0.000   0.000   0.000   0.000
  0.000   0.000   0.000   0.000   0.000   0.000   0.000   0.000
  0.000   0.000   0.333   0.000  -0.000   0.000   0.000   0.000
  0.000   0.000   0.000   0.333   0.000   0.000   0.000   0.000
  0.000   0.000  -0.000   0.000   0.333   0.000   0.000   0.000
  0.000   0.000   0.000   0.000   0.000   0.000   0.000   0.000
  0.000   0.000   0.000   0.000   0.000   0.000   0.000   0.000
  0.000   0.000   0.000   0.000   0.000   0.000   0.000   0.000


------------------------ aborting loop because EDIFF is reached ----------------------------------------


    CHARGE:  cpu time    0.0134: real time    0.0135
    FORLOC:  cpu time    0.0038: real time    0.0038
    FORNL :  cpu time    0.0822: real time    0.0830
    STRESS:  cpu time    0.2470: real time    0.2488
    FORCOR:  cpu time    0.0571: real time    0.0575
    FORHAR:  cpu time    0.0166: real time    0.0167
    OFIELD:  cpu time    0.0001: real time    0.0001

  FORCE on cell =-STRESS in cart. coord.  units (eV):
  Direction    XX          YY          ZZ          XY          YZ          ZX
  --------------------------------------------------------------------------------------
  Alpha Z    56.97177    56.97177    56.97177
  Ewald    -240.97374  -240.97364  -246.94348     0.00008     0.00000    -0.00000
  Hartree    79.32057    79.32057    90.50934     0.00000    -0.00000    -0.00000
  E(xc)     -65.56244   -65.56247   -65.50925    -0.00002    -0.00000    -0.00000
  Local      47.20601    47.20600    44.55787    -0.00001     0.00000     0.00000
  n-local   -68.80168   -68.80871   -66.39030     0.00614     0.00000    -0.00000
  augment    25.91563    25.91547    26.17704    -0.00014     0.00000     0.00000
  Kinetic   164.79125   166.42211   161.09699    -1.41204    -0.00000    -0.00000
  Fock        0.00000     0.00000     0.00000     0.00000     0.00000     0.00000
  -------------------------------------------------------------------------------------
  Total      -0.32077    -0.32077     0.46998     0.00000     0.00000    -0.00000
  in kB     -18.10811   -18.10811    26.53126     0.00000     0.00000    -0.00000
  external pressure =       -3.23 kB  Pullay stress =        0.00 kB


 VOLUME and BASIS-vectors are now :
 -----------------------------------------------------------------------------
  energy-cutoff  :      403.93
  volume of cell :       28.38
      direct lattice vectors                 reciprocal lattice vectors
     3.055956464 -0.000000000 -0.000000000     0.327229793  0.188926206 -0.000000000
    -1.527978232  2.646535967 -0.000000000     0.000000000  0.377852413 -0.000000000
     0.000000000  0.000000000  3.509164603     0.000000000  0.000000000  0.284968109

  length of vectors
     3.055956464  3.055956496  3.509164603     0.377852416  0.377852413  0.284968109


 FORCES acting on ions
    electron-ion (+dipol)            ewald-force                    non-local-force                 convergence-correction
 -----------------------------------------------------------------------------------------------
   -.774E-04 0.447E-04 0.339E-13   -.201E-03 0.115E-03 0.352E-15   -.416E-16 0.694E-17 -.207E-24   0.213E-06 -.133E-06 -.290E-12
   0.774E-04 -.447E-04 0.164E-12   0.201E-03 -.115E-03 0.343E-14   0.659E-16 -.694E-17 0.000E+00   -.213E-06 0.133E-06 -.240E-12
   -.269E-13 0.654E-14 -.848E-14   0.176E-14 -.106E-14 -.378E-14   -.662E-23 0.000E+00 0.000E+00   -.986E-13 0.167E-12 0.972E-12
 -----------------------------------------------------------------------------------------------
   0.765E-13 -.576E-13 0.189E-12   -.186E-15 -.202E-14 0.000E+00   0.243E-16 0.000E+00 -.207E-24   -.106E-12 0.161E-12 0.442E-12


 POSITION                                       TOTAL-FORCE (eV/Angst)
 -----------------------------------------------------------------------------------
      1.52798      0.88218      1.75458         0.000000      0.000000      0.000000
     -0.00000      1.76436      1.75458        -0.000000     -0.000000     -0.000000
      0.00000      0.00000      0.00000         0.000000      0.000000     -0.000000
 -----------------------------------------------------------------------------------
    total drift:                               -0.000000      0.000000      0.000000


--------------------------------------------------------------------------------------------------------



  FREE ENERGIE OF THE ION-ELECTRON SYSTEM (eV)
  ---------------------------------------------------
  free  energy   TOTEN  =       -14.83504252 eV

  energy  without entropy=      -14.83568674  energy(sigma->0) =      -14.83525726



--------------------------------------------------------------------------------------------------------


    POTLOK:  cpu time    0.0598: real time    0.0603


--------------------------------------------------------------------------------------------------------


 writing wavefunctions
     LOOP+:  cpu time    1.0403: real time    1.0460
    4ORBIT:  cpu time    0.0000: real time    0.0000

 total amount of memory used by VASP on root node    39088. kBytes
========================================================================

   base      :      30000. kBytes
   nonlr-proj:        924. kBytes
   fftplans  :       2724. kBytes
   grid      :       4819. kBytes
   one-center:         24. kBytes
   wavefun   :        597. kBytes

  
  
 General timing and accounting informations for this job:
 ========================================================
  
                  Total CPU time used (sec):        1.876
                            User time (sec):        1.852
                          System time (sec):        0.024
                         Elapsed time (sec):        1.891
  
                   Maximum memory used (kb):       26472.
                   Average memory used (kb):           0.
  
                          Minor page faults:         9405
                          Major page faults:            0
                 Voluntary context switches:           46
