<?xml version="1.0" encoding="ISO-8859-1"?>
<modeling>
 <generator>
  <i name="program" type="string">vasp </i>
  <i name="version" type="string">5.4.1  </i>
  <i name="subversion" type="string">24Jun15 (build Mar  6 2017 20:45:23) complex                          parallel </i>
  <i name="platform" type="string">IFC91_ompi </i>
  <i name="date" type="string">2017 07 26 </i>
  <i name="time" type="string">17:46:46 </i>
 </generator>
 <incar>
  <i type="string" name="PREC">accurate</i>
  <i type="string" name="ALGO"> Fast</i>
  <i type="int" name="ISPIN">     1</i>
  <i type="int" name="ICHARG">    11</i>
  <i type="int" name="NELM">   100</i>
  <i type="int" name="NELMIN">     5</i>
  <i type="int" name="IBRION">    -1</i>
  <i name="EDIFF">      0.00000010</i>
  <i type="int" name="NSW">     0</i>
  <i type="int" name="ISIF">     3</i>
  <i type="string" name="LREAL"> Auto</i>
  <i type="int" name="ISMEAR">     1</i>
  <i name="SIGMA">      0.10000000</i>
  <i type="int" name="NWRITE">     3</i>
  <i type="logical" name="LWAVE"> T  </i>
  <i type="logical" name="LAECHG"> T  </i>
  <v type="int" name="KPOINT_BSE">    -1     0     0     0</v>
  <i type="int" name="NELM">   100</i>
 </incar>
 <kpoints>
  <generation param="Gamma">
   <v type="int" name="divisions">       3        3        2 </v>
   <v name="usershift">      0.00000000       0.00000000       0.00000000 </v>
   <v name="genvec1">      0.33333333       0.00000000       0.00000000 </v>
   <v name="genvec2">      0.00000000       0.33333333       0.00000000 </v>
   <v name="genvec3">      0.00000000       0.00000000       0.50000000 </v>
   <v name="shift">      0.00000000       0.00000000       0.00000000 </v>
  </generation>
  <varray name="kpointlist" >
   <v>       0.00000000       0.00000000       0.00000000 </v>
   <v>       0.33333333       0.00000000       0.00000000 </v>
   <v>       0.33333333       0.33333333       0.00000000 </v>
   <v>       0.00000000       0.00000000       0.50000000 </v>
   <v>       0.33333333       0.00000000       0.50000000 </v>
   <v>       0.33333333       0.33333333       0.50000000 </v>
  </varray>
  <varray name="weights" >
   <v>       0.05555556 </v>
   <v>       0.33333333 </v>
   <v>       0.11111111 </v>
   <v>       0.05555556 </v>
   <v>       0.33333333 </v>
   <v>       0.11111111 </v>
  </varray>
 </kpoints>
 <parameters>
  <separator name="general" >
   <i type="string" name="SYSTEM">unknown system</i>
   <i type="logical" name="LCOMPAT"> F  </i>
  </separator>
  <separator name="electronic" >
   <i type="string" name="PREC">accura</i>
   <i name="ENMAX">    403.92900000</i>
   <i name="ENAUG">    758.78000000</i>
   <i name="EDIFF">      0.00000010</i>
   <i type="int" name="IALGO">    68</i>
   <i type="int" name="IWAVPR">    10</i>
   <i type="int" name="NBANDS">    11</i>
   <i name="NELECT">     14.00000000</i>
   <i type="int" name="TURBO">     0</i>
   <i type="int" name="IRESTART">     0</i>
   <i type="int" name="NREBOOT">     0</i>
   <i type="int" name="NMIN">     0</i>
   <i name="EREF">      0.00000000</i>
   <separator name="electronic smearing" >
    <i type="int" name="ISMEAR">     1</i>
    <i name="SIGMA">      0.10000000</i>
    <i name="KSPACING">      0.50000000</i>
    <i type="logical" name="KGAMMA"> T  </i>
   </separator>
   <separator name="electronic projectors" >
    <i type="logical" name="LREAL"> T  </i>
    <v name="ROPT">     -0.00025000     -0.00025000</v>
    <i type="int" name="LMAXPAW">  -100</i>
    <i type="int" name="LMAXMIX">     2</i>
    <i type="logical" name="NLSPLINE"> F  </i>
   </separator>
   <separator name="electronic startup" >
    <i type="int" name="ISTART">     1</i>
    <i type="int" name="ICHARG">    11</i>
    <i type="int" name="INIWAV">     1</i>
   </separator>
   <separator name="electronic spin" >
    <i type="int" name="ISPIN">     1</i>
    <i type="logical" name="LNONCOLLINEAR"> F  </i>
    <v name="MAGMOM">      1.00000000      1.00000000      1.00000000</v>
    <i name="NUPDOWN">     -1.00000000</i>
    <i type="logical" name="LSORBIT"> F  </i>
    <v name="SAXIS">      0.00000000      0.00000000      1.00000000</v>
    <i type="logical" name="LSPIRAL"> F  </i>
    <v name="QSPIRAL">      0.00000000      0.00000000      0.00000000</v>
    <i type="logical" name="LZEROZ"> F  </i>
   </separator>
   <separator name="electronic exchange-correlation" >
    <i type="logical" name="LASPH"> F  </i>
    <i type="logical" name="LMETAGGA"> F  </i>
   </separator>
   <separator name="electronic convergence" >
    <i type="int" name="NELM">   100</i>
    <i type="int" name="NELMDL">     0</i>
    <i type="int" name="NELMIN">     5</i>
    <i name="ENINI">    403.92900000</i>
    <separator name="electronic convergence detail" >
     <i type="logical" name="LDIAG"> T  </i>
     <i type="logical" name="LSUBROT"> F  </i>
     <i name="WEIMIN">      0.00000000</i>
     <i name="EBREAK">      0.00000000</i>
     <i name="DEPER">      0.30000000</i>
     <i type="int" name="NRMM">     4</i>
     <i name="TIME">      0.40000000</i>
    </separator>
   </separator>
   <separator name="electronic mixer" >
    <i name="AMIX">      0.40000000</i>
    <i name="BMIX">      1.00000000</i>
    <i name="AMIN">      0.10000000</i>
    <i name="AMIX_MAG">      1.60000000</i>
    <i name="BMIX_MAG">      1.00000000</i>
    <separator name="electronic mixer details" >
     <i type="int" name="IMIX">     4</i>
     <i type="logical" name="MIXFIRST"> F  </i>
     <i type="int" name="MAXMIX">   -45</i>
     <i name="WC">    100.00000000</i>
     <i type="int" name="INIMIX">     1</i>
     <i type="int" name="MIXPRE">     1</i>
     <i type="int" name="MREMOVE">     5</i>
    </separator>
   </separator>
   <separator name="electronic dipolcorrection" >
    <i type="logical" name="LDIPOL"> F  </i>
    <i type="logical" name="LMONO"> F  </i>
    <i type="int" name="IDIPOL">     0</i>
    <i name="EPSILON">      1.00000000</i>
    <v name="DIPOL">   -100.00000000   -100.00000000   -100.00000000</v>
    <i name="EFIELD">      0.00000000</i>
   </separator>
  </separator>
  <separator name="grids" >
   <i type="int" name="NGX">    20</i>
   <i type="int" name="NGY">    20</i>
   <i type="int" name="NGZ">    24</i>
   <i type="int" name="NGXF">    40</i>
   <i type="int" name="NGYF">    40</i>
   <i type="int" name="NGZF">    48</i>
   <i type="logical" name="ADDGRID"> F  </i>
  </separator>
  <separator name="ionic" >
   <i type="int" name="NSW">     0</i>
   <i type="int" name="IBRION">    -1</i>
   <i type="int" name="ISIF">     3</i>
   <i name="PSTRESS">      0.00000000</i>
   <i name="EDIFFG">      0.00000100</i>
   <i type="int" name="NFREE">     0</i>
   <i name="POTIM">      0.50000000</i>
   <i name="SMASS">     -3.00000000</i>
   <i name="SCALEE">      1.00000000</i>
  </separator>
  <separator name="ionic md" >
   <i name="TEBEG">      0.00010000</i>
   <i name="TEEND">      0.00010000</i>
   <i type="int" name="NBLOCK">     1</i>
   <i type="int" name="KBLOCK">     1</i>
   <i type="int" name="NPACO">   256</i>
   <i name="APACO">     16.00000000</i>
  </separator>
  <separator name="symmetry" >
   <i type="int" name="ISYM">     2</i>
   <i name="SYMPREC">      0.00001000</i>
  </separator>
  <separator name="dos" >
   <i type="logical" name="LORBIT"> T  </i>
   <v name="RWIGS">     -1.00000000     -1.00000000</v>
   <i type="int" name="NEDOS">   301</i>
   <i name="EMIN">     10.00000000</i>
   <i name="EMAX">    -10.00000000</i>
   <i name="EFERMI">      0.00000000</i>
  </separator>
  <separator name="writing" >
   <i type="int" name="NWRITE">     3</i>
   <i type="logical" name="LWAVE"> T  </i>
   <i type="logical" name="LCHARG"> T  </i>
   <i type="logical" name="LPARD"> F  </i>
   <i type="logical" name="LVTOT"> F  </i>
   <i type="logical" name="LVHAR"> F  </i>
   <i type="logical" name="LELF"> F  </i>
   <i type="logical" name="LOPTICS"> F  </i>
   <v name="STM">      0.00000000      0.00000000      0.00000000      0.00000000      0.00000000      0.00000000      0.00000000</v>
  </separator>
  <separator name="performance" >
   <i type="int" name="NPAR">     1</i>
   <i type="int" name="NSIM">     4</i>
   <i type="int" name="NBLK">    -1</i>
   <i type="logical" name="LPLANE"> T  </i>
   <i type="logical" name="LSCALAPACK"> T  </i>
   <i type="logical" name="LSCAAWARE"> F  </i>
   <i type="logical" name="LSCALU"> F  </i>
   <i type="logical" name="LASYNC"> F  </i>
   <i type="logical" name="LORBITALREAL"> F  </i>
  </separator>
  <separator name="miscellaneous" >
   <i type="int" name="IDIOT">     3</i>
   <i type="logical" name="LMUSIC"> F  </i>
   <v name="POMASS">     10.81100000     24.30500000</v>
   <v name="DARWINR">      0.00000000      0.00000000</v>
   <v name="DARWINV">      1.00000000      1.00000000</v>
   <i type="logical" name="LCORR"> T  </i>
  </separator>
  <i type="logical" name="GGA_COMPAT"> T  </i>
  <i type="logical" name="LBERRY"> F  </i>
  <i type="int" name="ICORELEVEL">     0</i>
  <i type="logical" name="LDAU"> F  </i>
  <i type="int" name="I_CONSTRAINED_M">     0</i>
  <separator name="electronic exchange-correlation" >
   <i type="string" name="GGA">--</i>
   <i type="int" name="VOSKOWN">     0</i>
   <i type="logical" name="LHFCALC"> F  </i>
   <i type="string" name="PRECFOCK"></i>
   <i type="logical" name="LSYMGRAD"> F  </i>
   <i type="logical" name="LHFONE"> F  </i>
   <i type="logical" name="LRHFCALC"> F  </i>
   <i type="logical" name="LTHOMAS"> F  </i>
   <i type="logical" name="LMODELHF"> F  </i>
   <i name="ENCUT4O">     -1.00000000</i>
   <i type="int" name="EXXOEP">     0</i>
   <i type="int" name="FOURORBIT">     0</i>
   <i name="AEXX">      0.00000000</i>
   <i name="HFALPHA">      0.00000000</i>
   <i name="MCALPHA">      0.00000000</i>
   <i name="ALDAX">      1.00000000</i>
   <i name="AGGAX">      1.00000000</i>
   <i name="ALDAC">      1.00000000</i>
   <i name="AGGAC">      1.00000000</i>
   <i type="int" name="NKREDX">     1</i>
   <i type="int" name="NKREDY">     1</i>
   <i type="int" name="NKREDZ">     1</i>
   <i type="logical" name="SHIFTRED"> F  </i>
   <i type="logical" name="ODDONLY"> F  </i>
   <i type="logical" name="EVENONLY"> F  </i>
   <i type="int" name="LMAXFOCK">     0</i>
   <i type="int" name="NMAXFOCKAE">     0</i>
   <i type="logical" name="LFOCKAEDFT"> F  </i>
   <i name="HFSCREEN">      0.00000000</i>
   <i name="HFSCREENC">      0.00000000</i>
   <i type="int" name="NBANDSGWLOW">     0</i>
  </separator>
  <separator name="vdW DFT" >
   <i type="logical" name="LUSE_VDW"> F  </i>
   <i name="Zab_VDW">     -0.84910000</i>
   <i name="PARAM1">      0.12340000</i>
   <i name="PARAM2">      1.00000000</i>
   <i name="PARAM3">      0.00000000</i>
  </separator>
  <separator name="model GW" >
   <i type="int" name="MODEL_GW">     0</i>
   <i name="MODEL_EPS0">      5.67621320</i>
   <i name="MODEL_ALPHA">      1.00000000</i>
  </separator>
  <separator name="linear response parameters" >
   <i type="logical" name="LEPSILON"> F  </i>
   <i type="logical" name="LRPA"> F  </i>
   <i type="logical" name="LNABLA"> F  </i>
   <i type="logical" name="LVEL"> F  </i>
   <i type="int" name="KINTER">     0</i>
   <i name="CSHIFT">      0.10000000</i>
   <i name="OMEGAMAX">     -1.00000000</i>
   <i name="DEG_THRESHOLD">      0.00200000</i>
  </separator>
  <separator name="orbital magnetization" >
   <i type="logical" name="NUCIND"> F  </i>
   <v name="MAGPOS">      0.00000000      0.00000000      0.00000000</v>
   <i type="logical" name="LNICSALL"> T  </i>
   <i type="logical" name="ORBITALMAG"> F  </i>
   <i type="logical" name="LMAGBLOCH"> F  </i>
   <i type="logical" name="LCHIMAG"> F  </i>
   <i type="logical" name="LGAUGE"> T  </i>
   <i type="int" name="MAGATOM">     0</i>
   <v name="MAGDIPOL">      0.00000000      0.00000000      0.00000000</v>
   <v name="AVECCONST">      0.00000000      0.00000000      0.00000000</v>
  </separator>
  <separator name="response functions" >
   <i type="logical" name="LADDER"> F  </i>
   <i type="logical" name="LFXC"> F  </i>
   <i type="logical" name="LHARTREE"> T  </i>
   <i type="int" name="IBSE">     0</i>
   <v type="int" name="KPOINT">    -1     0     0     0</v>
   <i type="logical" name="LTCTE"> F  </i>
   <i type="logical" name="LTETE"> F  </i>
   <i type="logical" name="LTRIPLET"> F  </i>
   <i type="logical" name="LFXCEPS"> F  </i>
   <i type="logical" name="LFXHEG"> F  </i>
   <i type="int" name="NATURALO">     0</i>
   <i type="logical" name="L2ORDER"> F  </i>
   <i type="logical" name="LUSEW"> F  </i>
   <i name="ENCUTGW">     -2.00000000</i>
   <i name="ENCUTGWSOFT">     -2.00000000</i>
   <i name="ENCUTLF">     -1.00000000</i>
   <i type="int" name="LMAXMP2">    -1</i>
   <i name="SCISSOR">      0.00000000</i>
   <i type="int" name="NOMEGA">     0</i>
   <i type="int" name="NOMEGAR">     0</i>
   <i type="int" name="NBANDSGW">    -1</i>
   <i type="int" name="NBANDSO">    -1</i>
   <i type="int" name="NBANDSV">    -1</i>
   <i type="int" name="NELM">   100</i>
   <i type="int" name="NELMHF">     1</i>
   <i type="int" name="DIM">     3</i>
   <i type="int" name="ANTIRES">     0</i>
   <i name="OMEGAMAX">    -30.00000000</i>
   <i name="OMEGAMIN">    -30.00000000</i>
   <i name="OMEGATL">   -200.00000000</i>
   <i type="int" name="OMEGAGRID">     0</i>
   <i name="CSHIFT">     -0.10000000</i>
   <i type="logical" name="SELFENERGY"> F  </i>
   <i type="logical" name="LSPECTRAL"> F  </i>
   <i type="logical" name="LSPECTRALGW"> F  </i>
   <i type="logical" name="LSINGLES"> F  </i>
   <i type="logical" name="LFERMIGW"> F  </i>
   <i type="logical" name="ODDONLYGW"> F  </i>
   <i type="logical" name="EVENONLYGW"> F  </i>
   <i type="int" name="NKREDLFX">     1</i>
   <i type="int" name="NKREDLFY">     1</i>
   <i type="int" name="NKREDLFZ">     1</i>
   <i type="int" name="MAXMEM">  1800</i>
   <i type="int" name="TELESCOPE">     0</i>
   <i type="int" name="TAUPAR">     1</i>
   <i type="int" name="OMEGAPAR">    -1</i>
   <i name="LAMBDA">      1.00000000</i>
  </separator>
  <separator name="External order field" >
   <i name="OFIELD_KAPPA">      0.00000000</i>
   <v name="OFIELD_K">      0.00000000      0.00000000      0.00000000</v>
   <i name="OFIELD_Q6_NEAR">      0.00000000</i>
   <i name="OFIELD_Q6_FAR">      0.00000000</i>
   <i name="OFIELD_A">      0.00000000</i>
  </separator>
 </parameters>
 <atominfo>
  <atoms>       3 </atoms>
  <types>       2 </types>
  <array name="atoms" >
   <dimension dim="1">ion</dimension>
   <field type="string">element</field>
   <field type="int">atomtype</field>
   <set>
    <rc><c>B </c><c>   1</c></rc>
    <rc><c>B </c><c>   1</c></rc>
    <rc><c>Mg</c><c>   2</c></rc>
   </set>
  </array>
  <array name="atomtypes" >
   <dimension dim="1">type</dimension>
   <field type="int">atomspertype</field>
   <field type="string">element</field>
   <field>mass</field>
   <field>valence</field>
   <field type="string">pseudopotential</field>
   <set>
    <rc><c>   2</c><c>B </c><c>     10.81100000</c><c>      3.00000000</c><c>  PAW_PBE B 06Sep2000                   </c></rc>
    <rc><c>   1</c><c>Mg</c><c>     24.30500000</c><c>      8.00000000</c><c>  PAW_PBE Mg_pv 13Apr2007               </c></rc>
   </set>
  </array>
 </atominfo>
 <structure name="initialpos" >
  <crystal>
   <varray name="basis" >
    <v>       3.05595646      -0.00000000      -0.00000000 </v>
    <v>      -1.52797823       2.64653597      -0.00000000 </v>
    <v>       0.00000000       0.00000000       3.50916460 </v>
   </varray>
   <i name="volume">     28.38106599 </i>
   <varray name="rec_basis" >
    <v>       0.32722979       0.18892621      -0.00000000 </v>
    <v>       0.00000000       0.37785241      -0.00000000 </v>
    <v>       0.00000000       0.00000000       0.28496811 </v>
   </varray>
  </crystal>
  <varray name="positions" >
   <v>       0.66666700       0.33333300       0.50000000 </v>
   <v>       0.33333300       0.66666700       0.50000000 </v>
   <v>       0.00000000       0.00000000       0.00000000 </v>
  </varray>
 </structure>
 <calculation>
  <scstep>
   <time name="dav">    0.11    0.11</time>
   <time name="total">    0.17    0.17</time>
   <energy>
    <i name="alphaZ">     56.97176874 </i>
    <i name="ewald">   -728.89024064 </i>
    <i name="hartreedc">   -249.34950119 </i>
    <i name="XCdc">     41.66672086 </i>
    <i name="pawpsdc">   1062.39314236 </i>
    <i name="pawaedc">  -1178.38220152 </i>
    <i name="eentropy">      0.00064421 </i>
    <i name="bandstr">   -218.24185334 </i>
    <i name="atom">   1198.99647800 </i>
    <i name="e_fr_energy">    -14.83504252 </i>
    <i name="e_wo_entrp">    -14.83568674 </i>
    <i name="e_0_energy">    -14.83525726 </i>
   </energy>
  </scstep>
  <scstep>
   <time name="diag">    0.02    0.02</time>
   <time name="diis">    0.05    0.05</time>
   <time name="orth">    0.00    0.00</time>
   <time name="total">    0.08    0.08</time>
   <energy>
    <i name="e_fr_energy">    -14.83504252 </i>
    <i name="e_wo_entrp">    -14.83568674 </i>
    <i name="e_0_energy">    -14.83525726 </i>
   </energy>
  </scstep>
  <scstep>
   <time name="diag">    0.02    0.02</time>
   <time name="diis">    0.05    0.05</time>
   <time name="orth">    0.00    0.00</time>
   <time name="total">    0.08    0.08</time>
   <energy>
    <i name="e_fr_energy">    -14.83504252 </i>
    <i name="e_wo_entrp">    -14.83568674 </i>
    <i name="e_0_energy">    -14.83525726 </i>
   </energy>
  </scstep>
  <scstep>
   <time name="diag">    0.02    0.02</time>
   <time name="diis">    0.05    0.05</time>
   <time name="orth">    0.00    0.00</time>
   <time name="total">    0.08    0.08</time>
   <energy>
    <i name="e_fr_energy">    -14.83504252 </i>
    <i name="e_wo_entrp">    -14.83568674 </i>
    <i name="e_0_energy">    -14.83525726 </i>
   </energy>
  </scstep>
  <scstep>
   <time name="diag">    0.02    0.02</time>
   <time name="diis">    0.05    0.05</time>
   <time name="orth">    0.00    0.00</time>
   <time name="total">    0.08    0.08</time>
   <energy>
    <i name="alphaZ">     56.97176874 </i>
    <i name="ewald">   -728.89024064 </i>
    <i name="hartreedc">   -249.34950119 </i>
    <i name="XCdc">     41.66672086 </i>
    <i name="pawpsdc">   1062.39314236 </i>
    <i name="pawaedc">  -1178.38220152 </i>
    <i name="eentropy">      0.00064421 </i>
    <i name="bandstr">   -218.24185334 </i>
    <i name="atom">   1198.99647800 </i>
    <i name="e_fr_energy">    -14.83504252 </i>
    <i name="e_wo_entrp">    -14.83568674 </i>
    <i name="e_0_energy">    -14.83525726 </i>
   </energy>
  </scstep>
  <structure>
   <crystal>
    <varray name="basis" >
     <v>       3.05595646      -0.00000000      -0.00000000 </v>
     <v>      -1.52797823       2.64653597      -0.00000000 </v>
     <v>       0.00000000       0.00000000       3.50916460 </v>
    </varray>
    <i name="volume">     28.38106599 </i>
    <varray name="rec_basis" >
     <v>       0.32722979       0.18892621      -0.00000000 </v>
     <v>       0.00000000       0.37785241      -0.00000000 </v>
     <v>       0.00000000       0.00000000       0.28496811 </v>
    </varray>
   </crystal>
   <varray name="positions" >
    <v>       0.66666700       0.33333300       0.50000000 </v>
    <v>       0.33333300       0.66666700       0.50000000 </v>
    <v>       0.00000000       0.00000000       0.00000000 </v>
   </varray>
  </structure>
  <varray name="forces" >
   <v>       0.00000000       0.00000000       0.00000000 </v>
   <v>      -0.00000000      -0.00000000      -0.00000000 </v>
   <v>       0.00000000       0.00000000      -0.00000000 </v>
  </varray>
  <varray name="stress" >
   <v>     -18.10811342      -0.00000000      -0.00000000 </v>
   <v>       0.00000000     -18.10811391      -0.00000000 </v>
   <v>      -0.00000000       0.00000000      26.53125649 </v>
  </varray>
  <energy>
   <i name="e_fr_energy">    -14.83504252 </i>
   <i name="e_wo_entrp">    -14.83525726 </i>
   <i name="e_0_energy">      0.00064421 </i>
  </energy>
  <time name="totalsc">    1.04    1.05</time>
  <eigenvalues>
   <array>
    <dimension dim="1">band</dimension>
    <dimension dim="2">kpoint</dimension>
    <dimension dim="3">spin</dimension>
    <field>eigene</field>
    <field>occ</field>
    <set>
     <set comment="spin 1">
      <set comment="kpoint 1">
       <r>  -36.6854    1.0000 </r>
       <r>  -36.6854    1.0000 </r>
       <r>  -36.6819    1.0000 </r>
       <r>   -7.4074    1.0000 </r>
       <r>    2.1300    1.0000 </r>
       <r>    5.5377    1.0000 </r>
       <r>    5.5377    1.0000 </r>
       <r>    6.8053   -0.0000 </r>
       <r>   11.5983    0.0000 </r>
       <r>   11.5984    0.0000 </r>
       <r>   13.5750    0.0000 </r>
      </set>
      <set comment="kpoint 2">
       <r>  -36.7185    1.0000 </r>
       <r>  -36.6910    1.0000 </r>
       <r>  -36.6706    1.0000 </r>
       <r>   -5.4688    1.0000 </r>
       <r>    0.0257    1.0000 </r>
       <r>    3.4102    1.0000 </r>
       <r>    3.9638    1.0000 </r>
       <r>    8.4424   -0.0000 </r>
       <r>   10.3252    0.0000 </r>
       <r>   10.4204    0.0000 </r>
       <r>   13.9608    0.0000 </r>
      </set>
      <set comment="kpoint 3">
       <r>  -36.7183    1.0000 </r>
       <r>  -36.7183    1.0000 </r>
       <r>  -36.6703    1.0000 </r>
       <r>   -2.1499    1.0000 </r>
       <r>   -2.1498    1.0000 </r>
       <r>   -0.7939    1.0000 </r>
       <r>    6.9461   -0.0000 </r>
       <r>    6.9461   -0.0000 </r>
       <r>   11.3965    0.0000 </r>
       <r>   11.3965    0.0000 </r>
       <r>   14.0580    0.0000 </r>
      </set>
      <set comment="kpoint 4">
       <r>  -36.6843    1.0000 </r>
       <r>  -36.6801    1.0000 </r>
       <r>  -36.6801    1.0000 </r>
       <r>   -6.1108    1.0000 </r>
       <r>   -2.3650    1.0000 </r>
       <r>    5.9097    1.0001 </r>
       <r>    5.9098    0.9999 </r>
       <r>   11.9049    0.0000 </r>
       <r>   11.9050    0.0000 </r>
       <r>   13.3069    0.0000 </r>
       <r>   15.1723    0.0000 </r>
      </set>
      <set comment="kpoint 5">
       <r>  -36.7181    1.0000 </r>
       <r>  -36.6903    1.0000 </r>
       <r>  -36.6778    1.0000 </r>
       <r>   -4.3557    1.0000 </r>
       <r>   -0.1927    1.0000 </r>
       <r>    0.7672    1.0000 </r>
       <r>    3.7012    1.0000 </r>
       <r>    6.4993   -0.0000 </r>
       <r>   11.2720    0.0000 </r>
       <r>   14.7234    0.0000 </r>
       <r>   14.7898    0.0000 </r>
      </set>
      <set comment="kpoint 6">
       <r>  -36.7180    1.0000 </r>
       <r>  -36.7180    1.0000 </r>
       <r>  -36.6763    1.0000 </r>
       <r>   -1.2681    1.0000 </r>
       <r>   -1.2680    1.0000 </r>
       <r>   -0.1226    1.0000 </r>
       <r>    3.1536    1.0000 </r>
       <r>    3.1536    1.0000 </r>
       <r>    8.8710    0.0000 </r>
       <r>   17.0038    0.0000 </r>
       <r>   17.3323    0.0000 </r>
      </set>
     </set>
    </set>
   </array>
  </eigenvalues>
  <separator name="orbital magnetization" >
   <v name="MAGDIPOLOUT">      0.00000000      0.00000000      0.00000000</v>
  </separator>
  <dos>
   <i name="efermi">      5.99396036 </i>
   <total>
    <array>
     <dimension dim="1">gridpoints</dimension>
     <dimension dim="2">spin</dimension>
     <field>energy</field>
     <field>total</field>
     <field>integrated</field>
     <set>
      <set comment="spin 1">
       <r>   -39.4211     0.0000     0.0000 </r>
       <r>   -39.2229     0.0000     0.0000 </r>
       <r>   -39.0247     0.0000     0.0000 </r>
       <r>   -38.8265     0.0000     0.0000 </r>
       <r>   -38.6283     0.0000     0.0000 </r>
       <r>   -38.4302     0.0000     0.0000 </r>
       <r>   -38.2320     0.0000     0.0000 </r>
       <r>   -38.0338     0.0000     0.0000 </r>
       <r>   -37.8356     0.0000     0.0000 </r>
       <r>   -37.6374    -0.0000    -0.0000 </r>
       <r>   -37.4392    -0.0000    -0.0000 </r>
       <r>   -37.2410    -0.0000    -0.0000 </r>
       <r>   -37.0429    -0.0003    -0.0001 </r>
       <r>   -36.8447    -0.8072    -0.1600 </r>
       <r>   -36.6465    26.3929     5.0707 </r>
       <r>   -36.4483     4.7416     6.0104 </r>
       <r>   -36.2501    -0.0525     6.0000 </r>
       <r>   -36.0519    -0.0000     6.0000 </r>
       <r>   -35.8537     0.0000     6.0000 </r>
       <r>   -35.6555     0.0000     6.0000 </r>
       <r>   -35.4574     0.0000     6.0000 </r>
       <r>   -35.2592     0.0000     6.0000 </r>
       <r>   -35.0610     0.0000     6.0000 </r>
       <r>   -34.8628     0.0000     6.0000 </r>
       <r>   -34.6646     0.0000     6.0000 </r>
       <r>   -34.4664     0.0000     6.0000 </r>
       <r>   -34.2682     0.0000     6.0000 </r>
       <r>   -34.0701     0.0000     6.0000 </r>
       <r>   -33.8719     0.0000     6.0000 </r>
       <r>   -33.6737     0.0000     6.0000 </r>
       <r>   -33.4755     0.0000     6.0000 </r>
       <r>   -33.2773     0.0000     6.0000 </r>
       <r>   -33.0791     0.0000     6.0000 </r>
       <r>   -32.8809     0.0000     6.0000 </r>
       <r>   -32.6828     0.0000     6.0000 </r>
       <r>   -32.4846     0.0000     6.0000 </r>
       <r>   -32.2864     0.0000     6.0000 </r>
       <r>   -32.0882     0.0000     6.0000 </r>
       <r>   -31.8900     0.0000     6.0000 </r>
       <r>   -31.6918     0.0000     6.0000 </r>
       <r>   -31.4936     0.0000     6.0000 </r>
       <r>   -31.2955     0.0000     6.0000 </r>
       <r>   -31.0973     0.0000     6.0000 </r>
       <r>   -30.8991     0.0000     6.0000 </r>
       <r>   -30.7009     0.0000     6.0000 </r>
       <r>   -30.5027     0.0000     6.0000 </r>
       <r>   -30.3045     0.0000     6.0000 </r>
       <r>   -30.1063     0.0000     6.0000 </r>
       <r>   -29.9081     0.0000     6.0000 </r>
       <r>   -29.7100     0.0000     6.0000 </r>
       <r>   -29.5118     0.0000     6.0000 </r>
       <r>   -29.3136     0.0000     6.0000 </r>
       <r>   -29.1154     0.0000     6.0000 </r>
       <r>   -28.9172     0.0000     6.0000 </r>
       <r>   -28.7190     0.0000     6.0000 </r>
       <r>   -28.5208     0.0000     6.0000 </r>
       <r>   -28.3227     0.0000     6.0000 </r>
       <r>   -28.1245     0.0000     6.0000 </r>
       <r>   -27.9263     0.0000     6.0000 </r>
       <r>   -27.7281     0.0000     6.0000 </r>
       <r>   -27.5299     0.0000     6.0000 </r>
       <r>   -27.3317     0.0000     6.0000 </r>
       <r>   -27.1335     0.0000     6.0000 </r>
       <r>   -26.9354     0.0000     6.0000 </r>
       <r>   -26.7372     0.0000     6.0000 </r>
       <r>   -26.5390     0.0000     6.0000 </r>
       <r>   -26.3408     0.0000     6.0000 </r>
       <r>   -26.1426     0.0000     6.0000 </r>
       <r>   -25.9444     0.0000     6.0000 </r>
       <r>   -25.7462     0.0000     6.0000 </r>
       <r>   -25.5480     0.0000     6.0000 </r>
       <r>   -25.3499     0.0000     6.0000 </r>
       <r>   -25.1517     0.0000     6.0000 </r>
       <r>   -24.9535     0.0000     6.0000 </r>
       <r>   -24.7553     0.0000     6.0000 </r>
       <r>   -24.5571     0.0000     6.0000 </r>
       <r>   -24.3589     0.0000     6.0000 </r>
       <r>   -24.1607     0.0000     6.0000 </r>
       <r>   -23.9626     0.0000     6.0000 </r>
       <r>   -23.7644     0.0000     6.0000 </r>
       <r>   -23.5662     0.0000     6.0000 </r>
       <r>   -23.3680     0.0000     6.0000 </r>
       <r>   -23.1698     0.0000     6.0000 </r>
       <r>   -22.9716     0.0000     6.0000 </r>
       <r>   -22.7734     0.0000     6.0000 </r>
       <r>   -22.5753     0.0000     6.0000 </r>
       <r>   -22.3771     0.0000     6.0000 </r>
       <r>   -22.1789     0.0000     6.0000 </r>
       <r>   -21.9807     0.0000     6.0000 </r>
       <r>   -21.7825     0.0000     6.0000 </r>
       <r>   -21.5843     0.0000     6.0000 </r>
       <r>   -21.3861     0.0000     6.0000 </r>
       <r>   -21.1880     0.0000     6.0000 </r>
       <r>   -20.9898     0.0000     6.0000 </r>
       <r>   -20.7916     0.0000     6.0000 </r>
       <r>   -20.5934     0.0000     6.0000 </r>
       <r>   -20.3952     0.0000     6.0000 </r>
       <r>   -20.1970     0.0000     6.0000 </r>
       <r>   -19.9988     0.0000     6.0000 </r>
       <r>   -19.8006     0.0000     6.0000 </r>
       <r>   -19.6025     0.0000     6.0000 </r>
       <r>   -19.4043     0.0000     6.0000 </r>
       <r>   -19.2061     0.0000     6.0000 </r>
       <r>   -19.0079     0.0000     6.0000 </r>
       <r>   -18.8097     0.0000     6.0000 </r>
       <r>   -18.6115     0.0000     6.0000 </r>
       <r>   -18.4133     0.0000     6.0000 </r>
       <r>   -18.2152     0.0000     6.0000 </r>
       <r>   -18.0170     0.0000     6.0000 </r>
       <r>   -17.8188     0.0000     6.0000 </r>
       <r>   -17.6206     0.0000     6.0000 </r>
       <r>   -17.4224     0.0000     6.0000 </r>
       <r>   -17.2242     0.0000     6.0000 </r>
       <r>   -17.0260     0.0000     6.0000 </r>
       <r>   -16.8279     0.0000     6.0000 </r>
       <r>   -16.6297     0.0000     6.0000 </r>
       <r>   -16.4315     0.0000     6.0000 </r>
       <r>   -16.2333     0.0000     6.0000 </r>
       <r>   -16.0351     0.0000     6.0000 </r>
       <r>   -15.8369     0.0000     6.0000 </r>
       <r>   -15.6387     0.0000     6.0000 </r>
       <r>   -15.4405     0.0000     6.0000 </r>
       <r>   -15.2424     0.0000     6.0000 </r>
       <r>   -15.0442     0.0000     6.0000 </r>
       <r>   -14.8460     0.0000     6.0000 </r>
       <r>   -14.6478     0.0000     6.0000 </r>
       <r>   -14.4496     0.0000     6.0000 </r>
       <r>   -14.2514     0.0000     6.0000 </r>
       <r>   -14.0532     0.0000     6.0000 </r>
       <r>   -13.8551     0.0000     6.0000 </r>
       <r>   -13.6569     0.0000     6.0000 </r>
       <r>   -13.4587     0.0000     6.0000 </r>
       <r>   -13.2605     0.0000     6.0000 </r>
       <r>   -13.0623     0.0000     6.0000 </r>
       <r>   -12.8641     0.0000     6.0000 </r>
       <r>   -12.6659     0.0000     6.0000 </r>
       <r>   -12.4678     0.0000     6.0000 </r>
       <r>   -12.2696     0.0000     6.0000 </r>
       <r>   -12.0714     0.0000     6.0000 </r>
       <r>   -11.8732     0.0000     6.0000 </r>
       <r>   -11.6750     0.0000     6.0000 </r>
       <r>   -11.4768     0.0000     6.0000 </r>
       <r>   -11.2786     0.0000     6.0000 </r>
       <r>   -11.0805     0.0000     6.0000 </r>
       <r>   -10.8823     0.0000     6.0000 </r>
       <r>   -10.6841     0.0000     6.0000 </r>
       <r>   -10.4859     0.0000     6.0000 </r>
       <r>   -10.2877     0.0000     6.0000 </r>
       <r>   -10.0895     0.0000     6.0000 </r>
       <r>    -9.8913     0.0000     6.0000 </r>
       <r>    -9.6931     0.0000     6.0000 </r>
       <r>    -9.4950     0.0000     6.0000 </r>
       <r>    -9.2968     0.0000     6.0000 </r>
       <r>    -9.0986     0.0000     6.0000 </r>
       <r>    -8.9004     0.0000     6.0000 </r>
       <r>    -8.7022     0.0000     6.0000 </r>
       <r>    -8.5040     0.0000     6.0000 </r>
       <r>    -8.3058    -0.0000     6.0000 </r>
       <r>    -8.1077    -0.0000     6.0000 </r>
       <r>    -7.9095    -0.0000     6.0000 </r>
       <r>    -7.7113    -0.0000     6.0000 </r>
       <r>    -7.5131    -0.0168     5.9967 </r>
       <r>    -7.3149     0.5862     6.1128 </r>
       <r>    -7.1167    -0.0086     6.1111 </r>
       <r>    -6.9185    -0.0001     6.1111 </r>
       <r>    -6.7204    -0.0000     6.1111 </r>
       <r>    -6.5222    -0.0000     6.1111 </r>
       <r>    -6.3240    -0.0029     6.1105 </r>
       <r>    -6.1258     0.2128     6.1527 </r>
       <r>    -5.9276     0.3581     6.2237 </r>
       <r>    -5.7294    -0.0098     6.2217 </r>
       <r>    -5.5312     0.2357     6.2685 </r>
       <r>    -5.3330     3.2422     6.9110 </r>
       <r>    -5.1349    -0.1117     6.8889 </r>
       <r>    -4.9367    -0.0000     6.8889 </r>
       <r>    -4.7385    -0.0000     6.8889 </r>
       <r>    -4.5403    -0.0428     6.8804 </r>
       <r>    -4.3421     2.1084     7.2983 </r>
       <r>    -4.1439     1.3163     7.5591 </r>
       <r>    -3.9457    -0.0180     7.5556 </r>
       <r>    -3.7476    -0.0000     7.5556 </r>
       <r>    -3.5494     0.0000     7.5556 </r>
       <r>    -3.3512    -0.0000     7.5556 </r>
       <r>    -3.1530    -0.0000     7.5556 </r>
       <r>    -2.9548    -0.0000     7.5556 </r>
       <r>    -2.7566    -0.0000     7.5556 </r>
       <r>    -2.5584    -0.0055     7.5545 </r>
       <r>    -2.3603     0.2957     7.6131 </r>
       <r>    -2.1621     1.1656     7.8441 </r>
       <r>    -1.9639     1.3749     8.1166 </r>
       <r>    -1.7657    -0.0275     8.1111 </r>
       <r>    -1.5675    -0.0002     8.1111 </r>
       <r>    -1.3693    -0.0590     8.0994 </r>
       <r>    -1.1711     2.3502     8.5652 </r>
       <r>    -0.9730    -0.0648     8.5523 </r>
       <r>    -0.7748     0.7545     8.7019 </r>
       <r>    -0.5766     0.3880     8.7788 </r>
       <r>    -0.3784    -0.0475     8.7693 </r>
       <r>    -0.1802     2.1579     9.1970 </r>
       <r>     0.0180     3.8868     9.9673 </r>
       <r>     0.2162     1.8830    10.3405 </r>
       <r>     0.4144    -0.0362    10.3333 </r>
       <r>     0.6125    -0.0859    10.3163 </r>
       <r>     0.8107     2.8859    10.8883 </r>
       <r>     1.0089     0.5694    11.0011 </r>
       <r>     1.2071    -0.0056    11.0000 </r>
       <r>     1.4053    -0.0000    11.0000 </r>
       <r>     1.6035    -0.0000    11.0000 </r>
       <r>     1.8017    -0.0000    11.0000 </r>
       <r>     1.9998    -0.0194    10.9962 </r>
       <r>     2.1980     0.5535    11.1059 </r>
       <r>     2.3962     0.0268    11.1112 </r>
       <r>     2.5944    -0.0003    11.1111 </r>
       <r>     2.7926    -0.0000    11.1111 </r>
       <r>     2.9908    -0.0488    11.1014 </r>
       <r>     3.1890     1.7835    11.4549 </r>
       <r>     3.3871     1.5576    11.7636 </r>
       <r>     3.5853     2.2524    12.2100 </r>
       <r>     3.7835     3.3633    12.8766 </r>
       <r>     3.9817     2.2459    13.3217 </r>
       <r>     4.1799     1.1957    13.5586 </r>
       <r>     4.3781    -0.0155    13.5556 </r>
       <r>     4.5763    -0.0000    13.5556 </r>
       <r>     4.7744    -0.0000    13.5556 </r>
       <r>     4.9726    -0.0000    13.5556 </r>
       <r>     5.1708    -0.0000    13.5556 </r>
       <r>     5.3690    -0.0214    13.5513 </r>
       <r>     5.5672     0.8490    13.7196 </r>
       <r>     5.7654     0.2633    13.7718 </r>
       <r>     5.9636     1.0286    13.9756 </r>
       <r>     6.1618     0.1242    14.0002 </r>
       <r>     6.3599    -0.1088    13.9787 </r>
       <r>     6.5581     3.1841    14.6097 </r>
       <r>     6.7563     0.3416    14.6774 </r>
       <r>     6.9545     1.8023    15.0346 </r>
       <r>     7.1527     0.9611    15.2251 </r>
       <r>     7.3509    -0.0144    15.2222 </r>
       <r>     7.5491    -0.0000    15.2222 </r>
       <r>     7.7472    -0.0000    15.2222 </r>
       <r>     7.9454    -0.0000    15.2222 </r>
       <r>     8.1436    -0.0003    15.2222 </r>
       <r>     8.3418    -0.0863    15.2051 </r>
       <r>     8.5400     3.5259    15.9038 </r>
       <r>     8.7382    -0.1132    15.8814 </r>
       <r>     8.9364     1.0946    16.0983 </r>
       <r>     9.1345     0.0652    16.1112 </r>
       <r>     9.3327    -0.0007    16.1111 </r>
       <r>     9.5309    -0.0000    16.1111 </r>
       <r>     9.7291    -0.0000    16.1111 </r>
       <r>     9.9273    -0.0000    16.1111 </r>
       <r>    10.1255    -0.0276    16.1056 </r>
       <r>    10.3237     1.5946    16.4217 </r>
       <r>    10.5219     5.2798    17.4681 </r>
       <r>    10.7200    -0.1188    17.4445 </r>
       <r>    10.9182    -0.0003    17.4444 </r>
       <r>    11.1164    -0.0851    17.4276 </r>
       <r>    11.3146     2.8782    17.9980 </r>
       <r>    11.5128     2.8939    18.5715 </r>
       <r>    11.7110     1.0677    18.7831 </r>
       <r>    11.9092     0.5738    18.8969 </r>
       <r>    12.1073     0.5286    19.0016 </r>
       <r>    12.3055    -0.0083    19.0000 </r>
       <r>    12.5037    -0.0000    19.0000 </r>
       <r>    12.7019    -0.0000    19.0000 </r>
       <r>    12.9001    -0.0000    19.0000 </r>
       <r>    13.0983    -0.0034    18.9993 </r>
       <r>    13.2965     0.2341    19.0457 </r>
       <r>    13.4946     0.3416    19.1134 </r>
       <r>    13.6928     0.5670    19.2258 </r>
       <r>    13.8910     0.0977    19.2452 </r>
       <r>    14.0892     4.2067    20.0789 </r>
       <r>    14.2874     0.1659    20.1117 </r>
       <r>    14.4856    -0.0100    20.1098 </r>
       <r>    14.6838     0.5508    20.2189 </r>
       <r>    14.8819     6.3140    21.4703 </r>
       <r>    15.0801    -0.1382    21.4429 </r>
       <r>    15.2783     0.5855    21.5589 </r>
       <r>    15.4765    -0.0169    21.5556 </r>
       <r>    15.6747    -0.0000    21.5556 </r>
       <r>    15.8729    -0.0000    21.5556 </r>
       <r>    16.0711    -0.0000    21.5556 </r>
       <r>    16.2693    -0.0000    21.5556 </r>
       <r>    16.4674    -0.0000    21.5556 </r>
       <r>    16.6656    -0.0000    21.5556 </r>
       <r>    16.8638    -0.0356    21.5485 </r>
       <r>    17.0620     1.0574    21.7581 </r>
       <r>    17.2602     0.1376    21.7853 </r>
       <r>    17.4584     1.1227    22.0078 </r>
       <r>    17.6566    -0.0395    22.0000 </r>
       <r>    17.8547    -0.0000    22.0000 </r>
       <r>    18.0529    -0.0000    22.0000 </r>
       <r>    18.2511     0.0000    22.0000 </r>
       <r>    18.4493     0.0000    22.0000 </r>
       <r>    18.6475     0.0000    22.0000 </r>
       <r>    18.8457     0.0000    22.0000 </r>
       <r>    19.0439     0.0000    22.0000 </r>
       <r>    19.2420     0.0000    22.0000 </r>
       <r>    19.4402     0.0000    22.0000 </r>
       <r>    19.6384     0.0000    22.0000 </r>
       <r>    19.8366     0.0000    22.0000 </r>
       <r>    20.0348     0.0000    22.0000 </r>
      </set>
     </set>
    </array>
   </total>
  </dos>
 </calculation>
 <structure name="finalpos" >
  <crystal>
   <varray name="basis" >
    <v>       3.05595646      -0.00000000      -0.00000000 </v>
    <v>      -1.52797823       2.64653597      -0.00000000 </v>
    <v>       0.00000000       0.00000000       3.50916460 </v>
   </varray>
   <i name="volume">     28.38106599 </i>
   <varray name="rec_basis" >
    <v>       0.32722979       0.18892621      -0.00000000 </v>
    <v>       0.00000000       0.37785241      -0.00000000 </v>
    <v>       0.00000000       0.00000000       0.28496811 </v>
   </varray>
  </crystal>
  <varray name="positions" >
   <v>       0.66666700       0.33333300       0.50000000 </v>
   <v>       0.33333300       0.66666700       0.50000000 </v>
   <v>       0.00000000       0.00000000       0.00000000 </v>
  </varray>
 </structure>
</modeling>
