<?xml version="1.0" encoding="ISO-8859-1"?>
<modeling>
 <generator>
  <i name="program" type="string">vasp </i>
  <i name="version" type="string">5.4.1  </i>
  <i name="subversion" type="string">24Jun15 (build Mar  6 2017 20:45:23) complex                          parallel </i>
  <i name="platform" type="string">IFC91_ompi </i>
  <i name="date" type="string">2017 10 28 </i>
  <i name="time" type="string">19:29:23 </i>
 </generator>
 <incar>
  <i type="string" name="PREC">accurate</i>
  <i type="string" name="ALGO"> Normal</i>
  <i type="int" name="ISPIN">     1</i>
  <i type="int" name="ICHARG">    11</i>
  <i type="int" name="NELM">   100</i>
  <i type="int" name="IBRION">    -1</i>
  <i name="EDIFF">      0.00000001</i>
  <i type="int" name="NSW">     0</i>
  <i type="int" name="ISIF">     3</i>
  <i name="ENCUT">    300.00000000</i>
  <i type="logical" name="LREAL"> F  </i>
  <i type="int" name="ISMEAR">     2</i>
  <i name="SIGMA">      0.20000000</i>
  <i type="int" name="NWRITE">     3</i>
  <i type="logical" name="LWAVE"> T  </i>
  <i type="logical" name="LVTOT"> T  </i>
  <i type="logical" name="LVHAR"> F  </i>
  <v type="int" name="KPOINT_BSE">    -1     0     0     0</v>
  <i type="int" name="NELM">   100</i>
 </incar>
 <kpoints>
  <generation param="Gamma">
   <v type="int" name="divisions">      12       12       12 </v>
   <v name="usershift">      0.00000000       0.00000000       0.00000000 </v>
   <v name="genvec1">      0.08333333       0.00000000       0.00000000 </v>
   <v name="genvec2">      0.00000000       0.08333333       0.00000000 </v>
   <v name="genvec3">      0.00000000       0.00000000       0.08333333 </v>
   <v name="shift">      0.00000000       0.00000000       0.00000000 </v>
  </generation>
  <varray name="kpointlist" >
   <v>       0.00000000       0.00000000       0.00000000 </v>
   <v>       0.08333333       0.00000000       0.00000000 </v>
   <v>       0.16666667       0.00000000       0.00000000 </v>
   <v>       0.25000000       0.00000000       0.00000000 </v>
   <v>       0.33333333       0.00000000       0.00000000 </v>
   <v>       0.41666667       0.00000000       0.00000000 </v>
   <v>       0.50000000       0.00000000       0.00000000 </v>
   <v>       0.08333333       0.08333333       0.00000000 </v>
   <v>       0.16666667       0.08333333       0.00000000 </v>
   <v>       0.25000000       0.08333333       0.00000000 </v>
   <v>       0.33333333       0.08333333       0.00000000 </v>
   <v>       0.41666667       0.08333333       0.00000000 </v>
   <v>       0.50000000       0.08333333       0.00000000 </v>
   <v>      -0.41666667       0.08333333       0.00000000 </v>
   <v>      -0.33333333       0.08333333       0.00000000 </v>
   <v>      -0.25000000       0.08333333       0.00000000 </v>
   <v>      -0.16666667       0.08333333       0.00000000 </v>
   <v>      -0.08333333       0.08333333       0.00000000 </v>
   <v>       0.16666667       0.16666667       0.00000000 </v>
   <v>       0.25000000       0.16666667       0.00000000 </v>
   <v>       0.33333333       0.16666667       0.00000000 </v>
   <v>       0.41666667       0.16666667       0.00000000 </v>
   <v>       0.50000000       0.16666667       0.00000000 </v>
   <v>      -0.41666667       0.16666667       0.00000000 </v>
   <v>      -0.33333333       0.16666667       0.00000000 </v>
   <v>      -0.25000000       0.16666667       0.00000000 </v>
   <v>      -0.16666667       0.16666667       0.00000000 </v>
   <v>       0.25000000       0.25000000       0.00000000 </v>
   <v>       0.33333333       0.25000000       0.00000000 </v>
   <v>       0.41666667       0.25000000       0.00000000 </v>
   <v>       0.50000000       0.25000000       0.00000000 </v>
   <v>      -0.41666667       0.25000000       0.00000000 </v>
   <v>      -0.33333333       0.25000000       0.00000000 </v>
   <v>      -0.25000000       0.25000000       0.00000000 </v>
   <v>       0.33333333       0.33333333       0.00000000 </v>
   <v>       0.41666667       0.33333333       0.00000000 </v>
   <v>       0.50000000       0.33333333       0.00000000 </v>
   <v>      -0.41666667       0.33333333       0.00000000 </v>
   <v>      -0.33333333       0.33333333       0.00000000 </v>
   <v>       0.41666667       0.41666667       0.00000000 </v>
   <v>       0.50000000       0.41666667       0.00000000 </v>
   <v>      -0.41666667       0.41666667       0.00000000 </v>
   <v>       0.50000000       0.50000000       0.00000000 </v>
   <v>       0.25000000       0.16666667       0.08333333 </v>
   <v>       0.33333333       0.16666667       0.08333333 </v>
   <v>       0.41666667       0.16666667       0.08333333 </v>
   <v>       0.50000000       0.16666667       0.08333333 </v>
   <v>      -0.41666667       0.16666667       0.08333333 </v>
   <v>       0.33333333       0.25000000       0.08333333 </v>
   <v>       0.41666667       0.25000000       0.08333333 </v>
   <v>       0.50000000       0.25000000       0.08333333 </v>
   <v>      -0.41666667       0.25000000       0.08333333 </v>
   <v>      -0.33333333       0.25000000       0.08333333 </v>
   <v>      -0.25000000       0.25000000       0.08333333 </v>
   <v>      -0.16666667       0.25000000       0.08333333 </v>
   <v>       0.41666667       0.33333333       0.08333333 </v>
   <v>       0.50000000       0.33333333       0.08333333 </v>
   <v>      -0.41666667       0.33333333       0.08333333 </v>
   <v>      -0.33333333       0.33333333       0.08333333 </v>
   <v>      -0.25000000       0.33333333       0.08333333 </v>
   <v>       0.50000000       0.41666667       0.08333333 </v>
   <v>      -0.41666667       0.41666667       0.08333333 </v>
   <v>      -0.33333333       0.41666667       0.08333333 </v>
   <v>      -0.41666667       0.50000000       0.08333333 </v>
   <v>       0.50000000       0.33333333       0.16666667 </v>
   <v>      -0.41666667       0.33333333       0.16666667 </v>
   <v>      -0.33333333       0.33333333       0.16666667 </v>
   <v>      -0.41666667       0.41666667       0.16666667 </v>
   <v>      -0.33333333       0.41666667       0.16666667 </v>
   <v>      -0.25000000       0.41666667       0.16666667 </v>
   <v>      -0.33333333       0.50000000       0.16666667 </v>
   <v>      -0.25000000       0.50000000       0.25000000 </v>
  </varray>
  <varray name="weights" >
   <v>       0.00057870 </v>
   <v>       0.00462963 </v>
   <v>       0.00462963 </v>
   <v>       0.00462963 </v>
   <v>       0.00462963 </v>
   <v>       0.00462963 </v>
   <v>       0.00231481 </v>
   <v>       0.00347222 </v>
   <v>       0.01388889 </v>
   <v>       0.01388889 </v>
   <v>       0.01388889 </v>
   <v>       0.01388889 </v>
   <v>       0.01388889 </v>
   <v>       0.01388889 </v>
   <v>       0.01388889 </v>
   <v>       0.01388889 </v>
   <v>       0.01388889 </v>
   <v>       0.00694444 </v>
   <v>       0.00347222 </v>
   <v>       0.01388889 </v>
   <v>       0.01388889 </v>
   <v>       0.01388889 </v>
   <v>       0.01388889 </v>
   <v>       0.01388889 </v>
   <v>       0.01388889 </v>
   <v>       0.01388889 </v>
   <v>       0.00694444 </v>
   <v>       0.00347222 </v>
   <v>       0.01388889 </v>
   <v>       0.01388889 </v>
   <v>       0.01388889 </v>
   <v>       0.01388889 </v>
   <v>       0.01388889 </v>
   <v>       0.00694444 </v>
   <v>       0.00347222 </v>
   <v>       0.01388889 </v>
   <v>       0.01388889 </v>
   <v>       0.01388889 </v>
   <v>       0.00694444 </v>
   <v>       0.00347222 </v>
   <v>       0.01388889 </v>
   <v>       0.00694444 </v>
   <v>       0.00173611 </v>
   <v>       0.01388889 </v>
   <v>       0.02777778 </v>
   <v>       0.02777778 </v>
   <v>       0.02777778 </v>
   <v>       0.01388889 </v>
   <v>       0.01388889 </v>
   <v>       0.02777778 </v>
   <v>       0.02777778 </v>
   <v>       0.02777778 </v>
   <v>       0.02777778 </v>
   <v>       0.02777778 </v>
   <v>       0.01388889 </v>
   <v>       0.01388889 </v>
   <v>       0.02777778 </v>
   <v>       0.02777778 </v>
   <v>       0.02777778 </v>
   <v>       0.01388889 </v>
   <v>       0.01388889 </v>
   <v>       0.02777778 </v>
   <v>       0.01388889 </v>
   <v>       0.00694444 </v>
   <v>       0.01388889 </v>
   <v>       0.02777778 </v>
   <v>       0.01388889 </v>
   <v>       0.01388889 </v>
   <v>       0.02777778 </v>
   <v>       0.01388889 </v>
   <v>       0.00694444 </v>
   <v>       0.00347222 </v>
  </varray>
 </kpoints>
 <parameters>
  <separator name="general" >
   <i type="string" name="SYSTEM">unknown system</i>
   <i type="logical" name="LCOMPAT"> F  </i>
  </separator>
  <separator name="electronic" >
   <i type="string" name="PREC">accura</i>
   <i name="ENMAX">    300.00000000</i>
   <i name="ENAUG">    291.05200000</i>
   <i name="EDIFF">      0.00000001</i>
   <i type="int" name="IALGO">    38</i>
   <i type="int" name="IWAVPR">    10</i>
   <i type="int" name="NBANDS">     5</i>
   <i name="NELECT">      3.00000000</i>
   <i type="int" name="TURBO">     0</i>
   <i type="int" name="IRESTART">     0</i>
   <i type="int" name="NREBOOT">     0</i>
   <i type="int" name="NMIN">     0</i>
   <i name="EREF">      0.00000000</i>
   <separator name="electronic smearing" >
    <i type="int" name="ISMEAR">     2</i>
    <i name="SIGMA">      0.20000000</i>
    <i name="KSPACING">      0.50000000</i>
    <i type="logical" name="KGAMMA"> T  </i>
   </separator>
   <separator name="electronic projectors" >
    <i type="logical" name="LREAL"> F  </i>
    <v name="ROPT">      0.00000000</v>
    <i type="int" name="LMAXPAW">  -100</i>
    <i type="int" name="LMAXMIX">     2</i>
    <i type="logical" name="NLSPLINE"> F  </i>
   </separator>
   <separator name="electronic startup" >
    <i type="int" name="ISTART">     0</i>
    <i type="int" name="ICHARG">    11</i>
    <i type="int" name="INIWAV">     1</i>
   </separator>
   <separator name="electronic spin" >
    <i type="int" name="ISPIN">     1</i>
    <i type="logical" name="LNONCOLLINEAR"> F  </i>
    <v name="MAGMOM">      1.00000000</v>
    <i name="NUPDOWN">     -1.00000000</i>
    <i type="logical" name="LSORBIT"> F  </i>
    <v name="SAXIS">      0.00000000      0.00000000      1.00000000</v>
    <i type="logical" name="LSPIRAL"> F  </i>
    <v name="QSPIRAL">      0.00000000      0.00000000      0.00000000</v>
    <i type="logical" name="LZEROZ"> F  </i>
   </separator>
   <separator name="electronic exchange-correlation" >
    <i type="logical" name="LASPH"> F  </i>
    <i type="logical" name="LMETAGGA"> F  </i>
   </separator>
   <separator name="electronic convergence" >
    <i type="int" name="NELM">   100</i>
    <i type="int" name="NELMDL">    -5</i>
    <i type="int" name="NELMIN">     2</i>
    <i name="ENINI">    300.00000000</i>
    <separator name="electronic convergence detail" >
     <i type="logical" name="LDIAG"> T  </i>
     <i type="logical" name="LSUBROT"> F  </i>
     <i name="WEIMIN">      0.00000000</i>
     <i name="EBREAK">      0.00000000</i>
     <i name="DEPER">      0.30000000</i>
     <i type="int" name="NRMM">     4</i>
     <i name="TIME">      0.40000000</i>
    </separator>
   </separator>
   <separator name="electronic mixer" >
    <i name="AMIX">      0.40000000</i>
    <i name="BMIX">      1.00000000</i>
    <i name="AMIN">      0.10000000</i>
    <i name="AMIX_MAG">      1.60000000</i>
    <i name="BMIX_MAG">      1.00000000</i>
    <separator name="electronic mixer details" >
     <i type="int" name="IMIX">     4</i>
     <i type="logical" name="MIXFIRST"> F  </i>
     <i type="int" name="MAXMIX">   -45</i>
     <i name="WC">    100.00000000</i>
     <i type="int" name="INIMIX">     1</i>
     <i type="int" name="MIXPRE">     1</i>
     <i type="int" name="MREMOVE">     5</i>
    </separator>
   </separator>
   <separator name="electronic dipolcorrection" >
    <i type="logical" name="LDIPOL"> F  </i>
    <i type="logical" name="LMONO"> F  </i>
    <i type="int" name="IDIPOL">     0</i>
    <i name="EPSILON">      1.00000000</i>
    <v name="DIPOL">   -100.00000000   -100.00000000   -100.00000000</v>
    <i name="EFIELD">      0.00000000</i>
   </separator>
  </separator>
  <separator name="grids" >
   <i type="int" name="NGX">    16</i>
   <i type="int" name="NGY">    16</i>
   <i type="int" name="NGZ">    16</i>
   <i type="int" name="NGXF">    32</i>
   <i type="int" name="NGYF">    32</i>
   <i type="int" name="NGZF">    32</i>
   <i type="logical" name="ADDGRID"> F  </i>
  </separator>
  <separator name="ionic" >
   <i type="int" name="NSW">     0</i>
   <i type="int" name="IBRION">    -1</i>
   <i type="int" name="ISIF">     3</i>
   <i name="PSTRESS">      0.00000000</i>
   <i name="EDIFFG">      0.00000010</i>
   <i type="int" name="NFREE">     0</i>
   <i name="POTIM">      0.50000000</i>
   <i name="SMASS">     -3.00000000</i>
   <i name="SCALEE">      1.00000000</i>
  </separator>
  <separator name="ionic md" >
   <i name="TEBEG">      0.00010000</i>
   <i name="TEEND">      0.00010000</i>
   <i type="int" name="NBLOCK">     1</i>
   <i type="int" name="KBLOCK">     1</i>
   <i type="int" name="NPACO">   256</i>
   <i name="APACO">     16.00000000</i>
  </separator>
  <separator name="symmetry" >
   <i type="int" name="ISYM">     2</i>
   <i name="SYMPREC">      0.00001000</i>
  </separator>
  <separator name="dos" >
   <i type="logical" name="LORBIT"> T  </i>
   <v name="RWIGS">     -1.00000000</v>
   <i type="int" name="NEDOS">   301</i>
   <i name="EMIN">     10.00000000</i>
   <i name="EMAX">    -10.00000000</i>
   <i name="EFERMI">      0.00000000</i>
  </separator>
  <separator name="writing" >
   <i type="int" name="NWRITE">     3</i>
   <i type="logical" name="LWAVE"> T  </i>
   <i type="logical" name="LCHARG"> T  </i>
   <i type="logical" name="LPARD"> F  </i>
   <i type="logical" name="LVTOT"> T  </i>
   <i type="logical" name="LVHAR"> F  </i>
   <i type="logical" name="LELF"> F  </i>
   <i type="logical" name="LOPTICS"> F  </i>
   <v name="STM">      0.00000000      0.00000000      0.00000000      0.00000000      0.00000000      0.00000000      0.00000000</v>
  </separator>
  <separator name="performance" >
   <i type="int" name="NPAR">     1</i>
   <i type="int" name="NSIM">     4</i>
   <i type="int" name="NBLK">    -1</i>
   <i type="logical" name="LPLANE"> T  </i>
   <i type="logical" name="LSCALAPACK"> T  </i>
   <i type="logical" name="LSCAAWARE"> F  </i>
   <i type="logical" name="LSCALU"> F  </i>
   <i type="logical" name="LASYNC"> F  </i>
   <i type="logical" name="LORBITALREAL"> F  </i>
  </separator>
  <separator name="miscellaneous" >
   <i type="int" name="IDIOT">     3</i>
   <i type="logical" name="LMUSIC"> F  </i>
   <v name="POMASS">     26.98100000</v>
   <v name="DARWINR">      0.00000000</v>
   <v name="DARWINV">      1.00000000</v>
   <i type="logical" name="LCORR"> T  </i>
  </separator>
  <i type="logical" name="GGA_COMPAT"> T  </i>
  <i type="logical" name="LBERRY"> F  </i>
  <i type="int" name="ICORELEVEL">     0</i>
  <i type="logical" name="LDAU"> F  </i>
  <i type="int" name="I_CONSTRAINED_M">     0</i>
  <separator name="electronic exchange-correlation" >
   <i type="string" name="GGA">--</i>
   <i type="int" name="VOSKOWN">     0</i>
   <i type="logical" name="LHFCALC"> F  </i>
   <i type="string" name="PRECFOCK"></i>
   <i type="logical" name="LSYMGRAD"> F  </i>
   <i type="logical" name="LHFONE"> F  </i>
   <i type="logical" name="LRHFCALC"> F  </i>
   <i type="logical" name="LTHOMAS"> F  </i>
   <i type="logical" name="LMODELHF"> F  </i>
   <i name="ENCUT4O">     -1.00000000</i>
   <i type="int" name="EXXOEP">     0</i>
   <i type="int" name="FOURORBIT">     0</i>
   <i name="AEXX">      0.00000000</i>
   <i name="HFALPHA">      0.00000000</i>
   <i name="MCALPHA">      0.00000000</i>
   <i name="ALDAX">      1.00000000</i>
   <i name="AGGAX">      1.00000000</i>
   <i name="ALDAC">      1.00000000</i>
   <i name="AGGAC">      1.00000000</i>
   <i type="int" name="NKREDX">     1</i>
   <i type="int" name="NKREDY">     1</i>
   <i type="int" name="NKREDZ">     1</i>
   <i type="logical" name="SHIFTRED"> F  </i>
   <i type="logical" name="ODDONLY"> F  </i>
   <i type="logical" name="EVENONLY"> F  </i>
   <i type="int" name="LMAXFOCK">     0</i>
   <i type="int" name="NMAXFOCKAE">     0</i>
   <i type="logical" name="LFOCKAEDFT"> F  </i>
   <i name="HFSCREEN">      0.00000000</i>
   <i name="HFSCREENC">      0.00000000</i>
   <i type="int" name="NBANDSGWLOW">     0</i>
  </separator>
  <separator name="vdW DFT" >
   <i type="logical" name="LUSE_VDW"> F  </i>
   <i name="Zab_VDW">     -0.84910000</i>
   <i name="PARAM1">      0.12340000</i>
   <i name="PARAM2">      1.00000000</i>
   <i name="PARAM3">      0.00000000</i>
  </separator>
  <separator name="model GW" >
   <i type="int" name="MODEL_GW">     0</i>
   <i name="MODEL_EPS0">      9.87629822</i>
   <i name="MODEL_ALPHA">      1.00000000</i>
  </separator>
  <separator name="linear response parameters" >
   <i type="logical" name="LEPSILON"> F  </i>
   <i type="logical" name="LRPA"> F  </i>
   <i type="logical" name="LNABLA"> F  </i>
   <i type="logical" name="LVEL"> F  </i>
   <i type="int" name="KINTER">     0</i>
   <i name="CSHIFT">      0.10000000</i>
   <i name="OMEGAMAX">     -1.00000000</i>
   <i name="DEG_THRESHOLD">      0.00200000</i>
  </separator>
  <separator name="orbital magnetization" >
   <i type="logical" name="NUCIND"> F  </i>
   <v name="MAGPOS">      0.00000000      0.00000000      0.00000000</v>
   <i type="logical" name="LNICSALL"> T  </i>
   <i type="logical" name="ORBITALMAG"> F  </i>
   <i type="logical" name="LMAGBLOCH"> F  </i>
   <i type="logical" name="LCHIMAG"> F  </i>
   <i type="logical" name="LGAUGE"> T  </i>
   <i type="int" name="MAGATOM">     0</i>
   <v name="MAGDIPOL">      0.00000000      0.00000000      0.00000000</v>
   <v name="AVECCONST">      0.00000000      0.00000000      0.00000000</v>
  </separator>
  <separator name="response functions" >
   <i type="logical" name="LADDER"> F  </i>
   <i type="logical" name="LFXC"> F  </i>
   <i type="logical" name="LHARTREE"> T  </i>
   <i type="int" name="IBSE">     0</i>
   <v type="int" name="KPOINT">    -1     0     0     0</v>
   <i type="logical" name="LTCTE"> F  </i>
   <i type="logical" name="LTETE"> F  </i>
   <i type="logical" name="LTRIPLET"> F  </i>
   <i type="logical" name="LFXCEPS"> F  </i>
   <i type="logical" name="LFXHEG"> F  </i>
   <i type="int" name="NATURALO">     0</i>
   <i type="logical" name="L2ORDER"> F  </i>
   <i type="logical" name="LUSEW"> F  </i>
   <i name="ENCUTGW">     -2.00000000</i>
   <i name="ENCUTGWSOFT">     -2.00000000</i>
   <i name="ENCUTLF">     -1.00000000</i>
   <i type="int" name="LMAXMP2">    -1</i>
   <i name="SCISSOR">      0.00000000</i>
   <i type="int" name="NOMEGA">     0</i>
   <i type="int" name="NOMEGAR">     0</i>
   <i type="int" name="NBANDSGW">    -1</i>
   <i type="int" name="NBANDSO">    -1</i>
   <i type="int" name="NBANDSV">    -1</i>
   <i type="int" name="NELM">   100</i>
   <i type="int" name="NELMHF">     1</i>
   <i type="int" name="DIM">     3</i>
   <i type="int" name="ANTIRES">     0</i>
   <i name="OMEGAMAX">    -30.00000000</i>
   <i name="OMEGAMIN">    -30.00000000</i>
   <i name="OMEGATL">   -200.00000000</i>
   <i type="int" name="OMEGAGRID">     0</i>
   <i name="CSHIFT">     -0.10000000</i>
   <i type="logical" name="SELFENERGY"> F  </i>
   <i type="logical" name="LSPECTRAL"> F  </i>
   <i type="logical" name="LSPECTRALGW"> F  </i>
   <i type="logical" name="LSINGLES"> F  </i>
   <i type="logical" name="LFERMIGW"> F  </i>
   <i type="logical" name="ODDONLYGW"> F  </i>
   <i type="logical" name="EVENONLYGW"> F  </i>
   <i type="int" name="NKREDLFX">     1</i>
   <i type="int" name="NKREDLFY">     1</i>
   <i type="int" name="NKREDLFZ">     1</i>
   <i type="int" name="MAXMEM">  1800</i>
   <i type="int" name="TELESCOPE">     0</i>
   <i type="int" name="TAUPAR">     1</i>
   <i type="int" name="OMEGAPAR">    -1</i>
   <i name="LAMBDA">      1.00000000</i>
  </separator>
  <separator name="External order field" >
   <i name="OFIELD_KAPPA">      0.00000000</i>
   <v name="OFIELD_K">      0.00000000      0.00000000      0.00000000</v>
   <i name="OFIELD_Q6_NEAR">      0.00000000</i>
   <i name="OFIELD_Q6_FAR">      0.00000000</i>
   <i name="OFIELD_A">      0.00000000</i>
  </separator>
 </parameters>
 <atominfo>
  <atoms>       1 </atoms>
  <types>       1 </types>
  <array name="atoms" >
   <dimension dim="1">ion</dimension>
   <field type="string">element</field>
   <field type="int">atomtype</field>
   <set>
    <rc><c>Al</c><c>   1</c></rc>
   </set>
  </array>
  <array name="atomtypes" >
   <dimension dim="1">type</dimension>
   <field type="int">atomspertype</field>
   <field type="string">element</field>
   <field>mass</field>
   <field>valence</field>
   <field type="string">pseudopotential</field>
   <set>
    <rc><c>   1</c><c>Al</c><c>     26.98100000</c><c>      3.00000000</c><c>  PAW_PBE Al 04Jan2001                  </c></rc>
   </set>
  </array>
 </atominfo>
 <structure name="initialpos" >
  <crystal>
   <varray name="basis" >
    <v>      -2.01900619      -0.00000000       2.01900619 </v>
    <v>       0.00000000       2.01900619       2.01900619 </v>
    <v>      -2.01900619       2.01900619      -0.00000000 </v>
   </varray>
   <i name="volume">     16.46049703 </i>
   <varray name="rec_basis" >
    <v>      -0.24764659      -0.24764659       0.24764659 </v>
    <v>       0.24764659       0.24764659       0.24764659 </v>
    <v>      -0.24764659       0.24764659      -0.24764659 </v>
   </varray>
  </crystal>
  <varray name="positions" >
   <v>       0.00000000       0.00000000       0.00000000 </v>
  </varray>
 </structure>
 <calculation>
  <scstep>
   <time name="dav">    0.27    0.27</time>
   <time name="total">    0.30    0.30</time>
   <energy>
    <i name="alphaZ">     -0.20405276 </i>
    <i name="ewald">    -73.57448264 </i>
    <i name="hartreedc">     -0.10221427 </i>
    <i name="XCdc">    -26.12689169 </i>
    <i name="pawpsdc">    150.29144807 </i>
    <i name="pawaedc">   -118.35018876 </i>
    <i name="eentropy">     -0.00081488 </i>
    <i name="bandstr">     11.73055535 </i>
    <i name="atom">     53.53762400 </i>
    <i name="e_fr_energy">     -2.79901757 </i>
    <i name="e_wo_entrp">     -2.79820269 </i>
    <i name="e_0_energy">     -2.79881385 </i>
   </energy>
  </scstep>
  <scstep>
   <time name="dav">    0.38    0.38</time>
   <time name="total">    0.39    0.39</time>
   <energy>
    <i name="e_fr_energy">     -3.74330759 </i>
    <i name="e_wo_entrp">     -3.74402529 </i>
    <i name="e_0_energy">     -3.74348701 </i>
   </energy>
  </scstep>
  <scstep>
   <time name="dav">    0.27    0.27</time>
   <time name="total">    0.27    0.27</time>
   <energy>
    <i name="e_fr_energy">     -3.74933181 </i>
    <i name="e_wo_entrp">     -3.75012648 </i>
    <i name="e_0_energy">     -3.74953048 </i>
   </energy>
  </scstep>
  <scstep>
   <time name="dav">    0.28    0.28</time>
   <time name="total">    0.29    0.29</time>
   <energy>
    <i name="e_fr_energy">     -3.74934691 </i>
    <i name="e_wo_entrp">     -3.75014195 </i>
    <i name="e_0_energy">     -3.74954567 </i>
   </energy>
  </scstep>
  <scstep>
   <time name="dav">    0.28    0.28</time>
   <time name="total">    0.29    0.29</time>
   <energy>
    <i name="e_fr_energy">     -3.74934695 </i>
    <i name="e_wo_entrp">     -3.75014199 </i>
    <i name="e_0_energy">     -3.74954571 </i>
   </energy>
  </scstep>
  <scstep>
   <time name="dav">    0.31    0.31</time>
   <time name="total">    0.31    0.31</time>
   <energy>
    <i name="alphaZ">     -0.20405276 </i>
    <i name="ewald">    -73.57448264 </i>
    <i name="hartreedc">     -0.10221427 </i>
    <i name="XCdc">    -26.12689169 </i>
    <i name="pawpsdc">    150.29144807 </i>
    <i name="pawaedc">   -118.35018876 </i>
    <i name="eentropy">      0.00079504 </i>
    <i name="bandstr">     10.77861605 </i>
    <i name="atom">     53.53762400 </i>
    <i name="e_fr_energy">     -3.74934695 </i>
    <i name="e_wo_entrp">     -3.75014199 </i>
    <i name="e_0_energy">     -3.74954571 </i>
   </energy>
  </scstep>
  <structure>
   <crystal>
    <varray name="basis" >
     <v>      -2.01900619      -0.00000000       2.01900619 </v>
     <v>       0.00000000       2.01900619       2.01900619 </v>
     <v>      -2.01900619       2.01900619      -0.00000000 </v>
    </varray>
    <i name="volume">     16.46049703 </i>
    <varray name="rec_basis" >
     <v>      -0.24764659      -0.24764659       0.24764659 </v>
     <v>       0.24764659       0.24764659       0.24764659 </v>
     <v>      -0.24764659       0.24764659      -0.24764659 </v>
    </varray>
   </crystal>
   <varray name="positions" >
    <v>       0.00000000       0.00000000       0.00000000 </v>
   </varray>
  </structure>
  <varray name="forces" >
   <v>      -0.00000000       0.00000000      -0.00000000 </v>
  </varray>
  <varray name="stress" >
   <v>       3.84624488       0.00000000       0.00000000 </v>
   <v>       0.00000000       3.84624488       0.00000000 </v>
   <v>       0.00000000      -0.00000000       3.84624488 </v>
  </varray>
  <energy>
   <i name="e_fr_energy">     -3.74934695 </i>
   <i name="e_wo_entrp">     -3.74954571 </i>
   <i name="e_0_energy">      0.00079504 </i>
  </energy>
  <time name="totalsc">    2.07    2.08</time>
  <eigenvalues>
   <array>
    <dimension dim="1">band</dimension>
    <dimension dim="2">kpoint</dimension>
    <dimension dim="3">spin</dimension>
    <field>eigene</field>
    <field>occ</field>
    <set>
     <set comment="spin 1">
      <set comment="kpoint 1">
       <r>   -3.1257    1.0000 </r>
       <r>   20.6969    0.0000 </r>
       <r>   20.6969    0.0000 </r>
       <r>   20.6969    0.0000 </r>
       <r>   22.1682    0.0000 </r>
      </set>
      <set comment="kpoint 2">
       <r>   -2.9366    1.0000 </r>
       <r>   18.0624    0.0000 </r>
       <r>   20.1195    0.0000 </r>
       <r>   20.1195    0.0000 </r>
       <r>   22.8370    0.0000 </r>
      </set>
      <set comment="kpoint 3">
       <r>   -2.3710    1.0000 </r>
       <r>   14.6862    0.0000 </r>
       <r>   19.4120    0.0000 </r>
       <r>   19.4120    0.0000 </r>
       <r>   22.6489    0.0000 </r>
      </set>
      <set comment="kpoint 4">
       <r>   -1.4334    1.0000 </r>
       <r>   11.4734    0.0000 </r>
       <r>   18.9656    0.0000 </r>
       <r>   18.9656    0.0000 </r>
       <r>   22.4163    0.0000 </r>
      </set>
      <set comment="kpoint 5">
       <r>   -0.1308    1.0000 </r>
       <r>    8.5244    0.0001 </r>
       <r>   18.8245    0.0000 </r>
       <r>   18.8245    0.0000 </r>
       <r>   21.4285    0.0000 </r>
      </set>
      <set comment="kpoint 6">
       <r>    1.5268    1.0000 </r>
       <r>    5.8727    1.0000 </r>
       <r>   18.9995    0.0000 </r>
       <r>   18.9995    0.0000 </r>
       <r>   20.3070    0.0000 </r>
      </set>
      <set comment="kpoint 7">
       <r>    3.4239    1.0000 </r>
       <r>    3.6444    1.0000 </r>
       <r>   19.4607    0.0000 </r>
       <r>   19.4610    0.0000 </r>
       <r>   19.5355    0.0000 </r>
      </set>
      <set comment="kpoint 8">
       <r>   -2.8737    1.0000 </r>
       <r>   18.9647    0.0000 </r>
       <r>   18.9648    0.0000 </r>
       <r>   19.2593    0.0000 </r>
       <r>   21.5959    0.0000 </r>
      </set>
      <set comment="kpoint 9">
       <r>   -2.4337    1.0000 </r>
       <r>   15.8971    0.0000 </r>
       <r>   18.0798    0.0000 </r>
       <r>   19.3663    0.0000 </r>
       <r>   21.9625    0.0000 </r>
      </set>
      <set comment="kpoint 10">
       <r>   -1.6204    1.0000 </r>
       <r>   12.6500    0.0000 </r>
       <r>   17.5045    0.0000 </r>
       <r>   19.0261    0.0000 </r>
       <r>   20.8361    0.0000 </r>
      </set>
      <set comment="kpoint 11">
       <r>   -0.4399    1.0000 </r>
       <r>    9.6234    0.0000 </r>
       <r>   17.2474    0.0000 </r>
       <r>   18.8197    0.0000 </r>
       <r>   19.2807    0.0000 </r>
      </set>
      <set comment="kpoint 12">
       <r>    1.0987    1.0000 </r>
       <r>    6.8768    1.0000 </r>
       <r>   17.3106    0.0000 </r>
       <r>   17.9923    0.0000 </r>
       <r>   18.9391    0.0000 </r>
      </set>
      <set comment="kpoint 13">
       <r>    2.9799    1.0000 </r>
       <r>    4.4444    1.0000 </r>
       <r>   17.0517    0.0000 </r>
       <r>   17.6958    0.0000 </r>
       <r>   19.3580    0.0000 </r>
      </set>
      <set comment="kpoint 14">
       <r>    2.3172    1.0000 </r>
       <r>    5.2168    1.0000 </r>
       <r>   16.4377    0.0000 </r>
       <r>   18.4030    0.0000 </r>
       <r>   20.1049    0.0000 </r>
      </set>
      <set comment="kpoint 15">
       <r>    0.5469    1.0000 </r>
       <r>    7.7570    1.0050 </r>
       <r>   16.1555    0.0000 </r>
       <r>   19.4231    0.0000 </r>
       <r>   20.7483    0.0000 </r>
      </set>
      <set comment="kpoint 16">
       <r>   -0.8737    1.0000 </r>
       <r>   10.5960    0.0000 </r>
       <r>   16.2102    0.0000 </r>
       <r>   20.6021    0.0000 </r>
       <r>   20.9274    0.0000 </r>
      </set>
      <set comment="kpoint 17">
       <r>   -1.9327    1.0000 </r>
       <r>   13.6824    0.0000 </r>
       <r>   16.6157    0.0000 </r>
       <r>   21.0224    0.0000 </r>
       <r>   22.3448    0.0000 </r>
      </set>
      <set comment="kpoint 18">
       <r>   -2.6221    1.0000 </r>
       <r>   16.6698    0.0000 </r>
       <r>   17.6215    0.0000 </r>
       <r>   21.1917    0.0000 </r>
       <r>   22.4513    0.0000 </r>
      </set>
      <set comment="kpoint 19">
       <r>   -2.1204    1.0000 </r>
       <r>   17.0635    0.0000 </r>
       <r>   17.0635    0.0000 </r>
       <r>   17.2224    0.0000 </r>
       <r>   20.3512    0.0000 </r>
      </set>
      <set comment="kpoint 20">
       <r>   -1.4334    1.0000 </r>
       <r>   14.0812    0.0000 </r>
       <r>   16.3695    0.0000 </r>
       <r>   17.6814    0.0000 </r>
       <r>   18.5076    0.0000 </r>
      </set>
      <set comment="kpoint 21">
       <r>   -0.3782    1.0000 </r>
       <r>   11.0336    0.0000 </r>
       <r>   15.9999    0.0000 </r>
       <r>   16.7302    0.0000 </r>
       <r>   17.6604    0.0000 </r>
      </set>
      <set comment="kpoint 22">
       <r>    1.0368    1.0000 </r>
       <r>    8.2166   -0.0020 </r>
       <r>   15.3346    0.0000 </r>
       <r>   15.9528    0.0000 </r>
       <r>   17.6873    0.0000 </r>
      </set>
      <set comment="kpoint 23">
       <r>    2.7991    1.0000 </r>
       <r>    5.6904    1.0000 </r>
       <r>   14.2616    0.0000 </r>
       <r>   16.2285    0.0000 </r>
       <r>   18.0249    0.0000 </r>
      </set>
      <set comment="kpoint 24">
       <r>    3.4603    1.0000 </r>
       <r>    4.9167    1.0000 </r>
       <r>   13.5280    0.0000 </r>
       <r>   16.8273    0.0000 </r>
       <r>   18.6931    0.0000 </r>
      </set>
      <set comment="kpoint 25">
       <r>    1.5874    1.0000 </r>
       <r>    7.3233    0.9993 </r>
       <r>   13.1478    0.0000 </r>
       <r>   17.7491    0.0000 </r>
       <r>   19.6897    0.0000 </r>
      </set>
      <set comment="kpoint 26">
       <r>    0.0542    1.0000 </r>
       <r>    9.9961    0.0000 </r>
       <r>   13.1601    0.0000 </r>
       <r>   18.9857    0.0000 </r>
       <r>   20.9924    0.0000 </r>
      </set>
      <set comment="kpoint 27">
       <r>   -1.1222    1.0000 </r>
       <r>   12.5198    0.0000 </r>
       <r>   13.9437    0.0000 </r>
       <r>   20.5210    0.0000 </r>
       <r>   22.5524    0.0000 </r>
      </set>
      <set comment="kpoint 28">
       <r>   -0.8739    1.0000 </r>
       <r>   15.5260    0.0000 </r>
       <r>   15.5614    0.0000 </r>
       <r>   15.5614    0.0000 </r>
       <r>   16.3059    0.0000 </r>
      </set>
      <set comment="kpoint 29">
       <r>    0.0537    1.0000 </r>
       <r>   12.6956    0.0000 </r>
       <r>   14.4375    0.0000 </r>
       <r>   15.0806    0.0000 </r>
       <r>   16.3412    0.0000 </r>
      </set>
      <set comment="kpoint 30">
       <r>    1.3410    1.0000 </r>
       <r>    9.8640    0.0000 </r>
       <r>   12.8972    0.0000 </r>
       <r>   14.9235    0.0000 </r>
       <r>   16.5084    0.0000 </r>
      </set>
      <set comment="kpoint 31">
       <r>    2.9755    1.0000 </r>
       <r>    7.2711    0.9998 </r>
       <r>   11.6946    0.0000 </r>
       <r>   15.0895    0.0000 </r>
       <r>   16.7895    0.0000 </r>
      </set>
      <set comment="kpoint 32">
       <r>    4.8193    1.0000 </r>
       <r>    5.0917    1.0000 </r>
       <r>   10.8463    0.0000 </r>
       <r>   15.5791    0.0000 </r>
       <r>   17.3696    0.0000 </r>
      </set>
      <set comment="kpoint 33">
       <r>    2.9816    1.0000 </r>
       <r>    7.1896    1.0000 </r>
       <r>   10.4043    0.0000 </r>
       <r>   16.3923    0.0000 </r>
       <r>   18.2802    0.0000 </r>
      </set>
      <set comment="kpoint 34">
       <r>    1.3431    1.0000 </r>
       <r>    9.2660    0.0000 </r>
       <r>   10.7893    0.0000 </r>
       <r>   17.5298    0.0000 </r>
       <r>   19.5041    0.0000 </r>
      </set>
      <set comment="kpoint 35">
       <r>    0.8514    1.0000 </r>
       <r>   12.4159    0.0000 </r>
       <r>   14.2947    0.0000 </r>
       <r>   14.4889    0.0000 </r>
       <r>   14.4889    0.0000 </r>
      </set>
      <set comment="kpoint 36">
       <r>    2.0067    1.0000 </r>
       <r>   10.7206    0.0000 </r>
       <r>   11.8001    0.0000 </r>
       <r>   14.2220    0.0000 </r>
       <r>   15.3984    0.0000 </r>
      </set>
      <set comment="kpoint 37">
       <r>    3.5033    1.0000 </r>
       <r>    9.0569    0.0000 </r>
       <r>    9.5410    0.0000 </r>
       <r>   14.2784    0.0000 </r>
       <r>   15.7989    0.0000 </r>
      </set>
      <set comment="kpoint 38">
       <r>    5.2869    1.0000 </r>
       <r>    6.7835    1.0000 </r>
       <r>    8.5314    0.0001 </r>
       <r>   14.6583    0.0000 </r>
       <r>   16.3202    0.0000 </r>
      </set>
      <set comment="kpoint 39">
       <r>    4.7157    1.0000 </r>
       <r>    6.9463    1.0000 </r>
       <r>    8.4265    0.0010 </r>
       <r>   15.3636    0.0000 </r>
       <r>   17.1435    0.0000 </r>
      </set>
      <set comment="kpoint 40">
       <r>    3.0225    1.0000 </r>
       <r>    8.9379    0.0000 </r>
       <r>   13.5556    0.0000 </r>
       <r>   13.8460    0.0000 </r>
       <r>   13.8460    0.0000 </r>
      </set>
      <set comment="kpoint 41">
       <r>    4.3465    1.0000 </r>
       <r>    7.5225    0.9967 </r>
       <r>   11.3230    0.0000 </r>
       <r>   13.7932    0.0000 </r>
       <r>   14.9235    0.0000 </r>
      </set>
      <set comment="kpoint 42">
       <r>    5.5577    1.0000 </r>
       <r>    6.9022    1.0000 </r>
       <r>    8.9720    0.0000 </r>
       <r>   14.0636    0.0000 </r>
       <r>   15.5582    0.0000 </r>
      </set>
      <set comment="kpoint 43">
       <r>    5.0960    1.0000 </r>
       <r>    6.4285    1.0000 </r>
       <r>   13.3070    0.0000 </r>
       <r>   13.6317    0.0000 </r>
       <r>   13.6317    0.0000 </r>
      </set>
      <set comment="kpoint 44">
       <r>   -1.8701    1.0000 </r>
       <r>   14.6091    0.0000 </r>
       <r>   15.7888    0.0000 </r>
       <r>   20.0643    0.0000 </r>
       <r>   20.6568    0.0000 </r>
      </set>
      <set comment="kpoint 45">
       <r>   -0.9358    1.0000 </r>
       <r>   11.8463    0.0000 </r>
       <r>   14.9009    0.0000 </r>
       <r>   18.8865    0.0000 </r>
       <r>   20.2489    0.0000 </r>
      </set>
      <set comment="kpoint 46">
       <r>    0.3622    1.0000 </r>
       <r>    8.9651    0.0000 </r>
       <r>   14.6873    0.0000 </r>
       <r>   17.3962    0.0000 </r>
       <r>   20.2253    0.0000 </r>
      </set>
      <set comment="kpoint 47">
       <r>    2.0132    1.0000 </r>
       <r>    6.3386    1.0000 </r>
       <r>   14.8376    0.0000 </r>
       <r>   16.2311    0.0000 </r>
       <r>   20.4371    0.0000 </r>
      </set>
      <set comment="kpoint 48">
       <r>    3.8903    1.0000 </r>
       <r>    4.1343    1.0000 </r>
       <r>   15.1941    0.0000 </r>
       <r>   15.5368    0.0000 </r>
       <r>   20.8143    0.0000 </r>
      </set>
      <set comment="kpoint 49">
       <r>   -0.6257    1.0000 </r>
       <r>   12.9892    0.0000 </r>
       <r>   14.2554    0.0000 </r>
       <r>   16.5639    0.0000 </r>
       <r>   18.5514    0.0000 </r>
      </set>
      <set comment="kpoint 50">
       <r>    0.5462    1.0000 </r>
       <r>   10.4526    0.0000 </r>
       <r>   13.5362    0.0000 </r>
       <r>   14.9463    0.0000 </r>
       <r>   19.0078    0.0000 </r>
      </set>
      <set comment="kpoint 51">
       <r>    2.0722    1.0000 </r>
       <r>    7.7892    0.9306 </r>
       <r>   13.3600    0.0000 </r>
       <r>   13.8194    0.0000 </r>
       <r>   19.2340    0.0000 </r>
      </set>
      <set comment="kpoint 52">
       <r>    3.9326    1.0000 </r>
       <r>    5.3929    1.0000 </r>
       <r>   12.5891    0.0000 </r>
       <r>   14.0057    0.0000 </r>
       <r>   19.6883    0.0000 </r>
      </set>
      <set comment="kpoint 53">
       <r>    3.2814    1.0000 </r>
       <r>    6.1420    1.0000 </r>
       <r>   11.9940    0.0000 </r>
       <r>   14.7212    0.0000 </r>
       <r>   20.4405    0.0000 </r>
      </set>
      <set comment="kpoint 54">
       <r>    1.5259    1.0000 </r>
       <r>    8.5951    0.0000 </r>
       <r>   11.7879    0.0000 </r>
       <r>   15.7873    0.0000 </r>
       <r>   21.4776    0.0000 </r>
      </set>
      <set comment="kpoint 55">
       <r>    0.1157    1.0000 </r>
       <r>   10.8928    0.0000 </r>
       <r>   12.3797    0.0000 </r>
       <r>   17.1828    0.0000 </r>
       <r>   21.9415    0.0000 </r>
      </set>
      <set comment="kpoint 56">
       <r>    1.0963    1.0000 </r>
       <r>   11.8258    0.0000 </r>
       <r>   12.5489    0.0000 </r>
       <r>   13.2873    0.0000 </r>
       <r>   17.4172    0.0000 </r>
      </set>
      <set comment="kpoint 57">
       <r>    2.4920    1.0000 </r>
       <r>    9.5082    0.0000 </r>
       <r>   11.1998    0.0000 </r>
       <r>   12.7213    0.0000 </r>
       <r>   18.1189    0.0000 </r>
      </set>
      <set comment="kpoint 58">
       <r>    4.2203    1.0000 </r>
       <r>    7.0770    1.0000 </r>
       <r>   10.1359    0.0000 </r>
       <r>   12.9286    0.0000 </r>
       <r>   18.5814    0.0000 </r>
      </set>
      <set comment="kpoint 59">
       <r>    4.8862    1.0000 </r>
       <r>    6.2547    1.0000 </r>
       <r>    9.4587    0.0000 </r>
       <r>   13.5346    0.0000 </r>
       <r>   19.2676    0.0000 </r>
      </set>
      <set comment="kpoint 60">
       <r>    3.0408    1.0000 </r>
       <r>    8.1053   -0.0464 </r>
       <r>    9.6099    0.0000 </r>
       <r>   14.4939    0.0000 </r>
       <r>   20.2454    0.0000 </r>
      </set>
      <set comment="kpoint 61">
       <r>    3.2630    1.0000 </r>
       <r>    9.1642    0.0000 </r>
       <r>   11.1280    0.0000 </r>
       <r>   12.5276    0.0000 </r>
       <r>   16.7325    0.0000 </r>
      </set>
      <set comment="kpoint 62">
       <r>    4.8197    1.0000 </r>
       <r>    7.9720    0.1059 </r>
       <r>    9.0965    0.0000 </r>
       <r>   12.2406    0.0000 </r>
       <r>   17.6665    0.0000 </r>
      </set>
      <set comment="kpoint 63">
       <r>    6.2513    1.0000 </r>
       <r>    6.7716    1.0000 </r>
       <r>    7.7466    1.0208 </r>
       <r>   12.6943    0.0000 </r>
       <r>   18.3593    0.0000 </r>
      </set>
      <set comment="kpoint 64">
       <r>    5.3268    1.0000 </r>
       <r>    6.6702    1.0000 </r>
       <r>   10.8952    0.0000 </r>
       <r>   12.2964    0.0000 </r>
       <r>   16.5042    0.0000 </r>
      </set>
      <set comment="kpoint 65">
       <r>    1.8288    1.0000 </r>
       <r>    9.7315    0.0000 </r>
       <r>   11.2030    0.0000 </r>
       <r>   13.4177    0.0000 </r>
       <r>   20.8817    0.0000 </r>
      </set>
      <set comment="kpoint 66">
       <r>    3.4574    1.0000 </r>
       <r>    7.6560    1.0420 </r>
       <r>   10.8142    0.0000 </r>
       <r>   12.2406    0.0000 </r>
       <r>   21.6844    0.0000 </r>
      </set>
      <set comment="kpoint 67">
       <r>    5.2824    1.0000 </r>
       <r>    5.5577    1.0000 </r>
       <r>   11.0321    0.0000 </r>
       <r>   11.6216    0.0000 </r>
       <r>   22.0889    0.0000 </r>
      </set>
      <set comment="kpoint 68">
       <r>    3.9827    1.0000 </r>
       <r>    9.0346    0.0000 </r>
       <r>    9.7447    0.0000 </r>
       <r>   10.7308    0.0000 </r>
       <r>   20.2130    0.0000 </r>
      </set>
      <set comment="kpoint 69">
       <r>    5.7582    1.0000 </r>
       <r>    7.1765    1.0000 </r>
       <r>    8.9358    0.0000 </r>
       <r>   10.5002    0.0000 </r>
       <r>   21.2731    0.0000 </r>
      </set>
      <set comment="kpoint 70">
       <r>    5.1713    1.0000 </r>
       <r>    7.4099    0.9971 </r>
       <r>    8.8636    0.0000 </r>
       <r>   11.1518    0.0000 </r>
       <r>   22.0974    0.0000 </r>
      </set>
      <set comment="kpoint 71">
       <r>    6.0201    1.0000 </r>
       <r>    7.3777    0.9982 </r>
       <r>    8.8020    0.0000 </r>
       <r>   10.3915    0.0000 </r>
       <r>   19.9864    0.0000 </r>
      </set>
      <set comment="kpoint 72">
       <r>    7.1780    1.0000 </r>
       <r>    7.1780    1.0000 </r>
       <r>    8.1952   -0.0079 </r>
       <r>    9.1457    0.0000 </r>
       <r>   23.8975    0.0000 </r>
      </set>
     </set>
    </set>
   </array>
  </eigenvalues>
  <separator name="orbital magnetization" >
   <v name="MAGDIPOLOUT">      0.00000000      0.00000000      0.00000000</v>
  </separator>
  <dos>
   <i name="efermi">      7.88641150 </i>
   <total>
    <array>
     <dimension dim="1">gridpoints</dimension>
     <dimension dim="2">spin</dimension>
     <field>energy</field>
     <field>total</field>
     <field>integrated</field>
     <set>
      <set comment="spin 1">
       <r>    -5.1257     0.0000     0.0000 </r>
       <r>    -5.0223     0.0000     0.0000 </r>
       <r>    -4.9189     0.0000     0.0000 </r>
       <r>    -4.8155     0.0000     0.0000 </r>
       <r>    -4.7121     0.0000     0.0000 </r>
       <r>    -4.6087     0.0000     0.0000 </r>
       <r>    -4.5052     0.0000     0.0000 </r>
       <r>    -4.4018     0.0000     0.0000 </r>
       <r>    -4.2984     0.0000     0.0000 </r>
       <r>    -4.1950     0.0000     0.0000 </r>
       <r>    -4.0916     0.0000     0.0000 </r>
       <r>    -3.9882     0.0000     0.0000 </r>
       <r>    -3.8848     0.0000     0.0000 </r>
       <r>    -3.7814     0.0000     0.0000 </r>
       <r>    -3.6780     0.0000     0.0000 </r>
       <r>    -3.5745     0.0000     0.0000 </r>
       <r>    -3.4711     0.0001     0.0000 </r>
       <r>    -3.3677     0.0000     0.0000 </r>
       <r>    -3.2643    -0.0003    -0.0000 </r>
       <r>    -3.1609    -0.0012    -0.0001 </r>
       <r>    -3.0575     0.0088     0.0008 </r>
       <r>    -2.9541     0.0493     0.0059 </r>
       <r>    -2.8507     0.0723     0.0133 </r>
       <r>    -2.7473     0.0424     0.0177 </r>
       <r>    -2.6439     0.0372     0.0216 </r>
       <r>    -2.5404     0.0850     0.0304 </r>
       <r>    -2.4370     0.1609     0.0470 </r>
       <r>    -2.3336     0.1629     0.0638 </r>
       <r>    -2.2302     0.0578     0.0698 </r>
       <r>    -2.1268     0.0002     0.0699 </r>
       <r>    -2.0234     0.0616     0.0762 </r>
       <r>    -1.9200     0.2101     0.0979 </r>
       <r>    -1.8166     0.2380     0.1226 </r>
       <r>    -1.7132     0.1175     0.1347 </r>
       <r>    -1.6097     0.1026     0.1453 </r>
       <r>    -1.5063     0.1743     0.1633 </r>
       <r>    -1.4029     0.2006     0.1841 </r>
       <r>    -1.2995     0.1133     0.1958 </r>
       <r>    -1.1961     0.0143     0.1973 </r>
       <r>    -1.0927     0.0356     0.2010 </r>
       <r>    -0.9893     0.2159     0.2233 </r>
       <r>    -0.8859     0.4159     0.2663 </r>
       <r>    -0.7825     0.3047     0.2978 </r>
       <r>    -0.6790     0.1013     0.3083 </r>
       <r>    -0.5756     0.1046     0.3191 </r>
       <r>    -0.4722     0.1992     0.3397 </r>
       <r>    -0.3688     0.2629     0.3669 </r>
       <r>    -0.2654     0.1589     0.3833 </r>
       <r>    -0.1620     0.0152     0.3849 </r>
       <r>    -0.0586     0.0635     0.3915 </r>
       <r>     0.0448     0.2954     0.4220 </r>
       <r>     0.1482     0.3676     0.4600 </r>
       <r>     0.2516     0.1905     0.4797 </r>
       <r>     0.3551     0.1836     0.4987 </r>
       <r>     0.4585     0.3527     0.5352 </r>
       <r>     0.5619     0.4563     0.5824 </r>
       <r>     0.6653     0.3043     0.6138 </r>
       <r>     0.7687     0.0411     0.6181 </r>
       <r>     0.8721    -0.0258     0.6154 </r>
       <r>     0.9755     0.1148     0.6273 </r>
       <r>     1.0789     0.3465     0.6631 </r>
       <r>     1.1823     0.3381     0.6981 </r>
       <r>     1.2858     0.1649     0.7152 </r>
       <r>     1.3892     0.1829     0.7341 </r>
       <r>     1.4926     0.3570     0.7710 </r>
       <r>     1.5960     0.4402     0.8165 </r>
       <r>     1.6994     0.2349     0.8408 </r>
       <r>     1.8028     0.0536     0.8463 </r>
       <r>     1.9062     0.1772     0.8647 </r>
       <r>     2.0096     0.5320     0.9197 </r>
       <r>     2.1130     0.6242     0.9842 </r>
       <r>     2.2164     0.2664     1.0118 </r>
       <r>     2.3199     0.0793     1.0200 </r>
       <r>     2.4233     0.2063     1.0413 </r>
       <r>     2.5267     0.2975     1.0721 </r>
       <r>     2.6301     0.1662     1.0893 </r>
       <r>     2.7335     0.0347     1.0929 </r>
       <r>     2.8369     0.1171     1.1050 </r>
       <r>     2.9403     0.3866     1.1450 </r>
       <r>     3.0437     0.5466     1.2015 </r>
       <r>     3.1471     0.3414     1.2368 </r>
       <r>     3.2506     0.2647     1.2641 </r>
       <r>     3.3540     0.4544     1.3111 </r>
       <r>     3.4574     0.6068     1.3739 </r>
       <r>     3.5608     0.5012     1.4257 </r>
       <r>     3.6642     0.1319     1.4394 </r>
       <r>     3.7676    -0.0274     1.4365 </r>
       <r>     3.8710     0.2329     1.4606 </r>
       <r>     3.9744     0.5024     1.5126 </r>
       <r>     4.0778     0.4079     1.5548 </r>
       <r>     4.1813     0.3278     1.5886 </r>
       <r>     4.2847     0.3829     1.6282 </r>
       <r>     4.3881     0.3314     1.6625 </r>
       <r>     4.4915     0.1966     1.6828 </r>
       <r>     4.5949     0.0289     1.6858 </r>
       <r>     4.6983     0.0593     1.6920 </r>
       <r>     4.8017     0.4785     1.7414 </r>
       <r>     4.9051     0.7701     1.8211 </r>
       <r>     5.0085     0.4815     1.8709 </r>
       <r>     5.1119     0.2423     1.8959 </r>
       <r>     5.2154     0.4368     1.9411 </r>
       <r>     5.3188     0.6366     2.0069 </r>
       <r>     5.4222     0.5379     2.0626 </r>
       <r>     5.5256     0.3120     2.0948 </r>
       <r>     5.6290     0.2747     2.1232 </r>
       <r>     5.7324     0.3993     2.1645 </r>
       <r>     5.8358     0.3630     2.2021 </r>
       <r>     5.9392     0.1328     2.2158 </r>
       <r>     6.0426     0.0778     2.2238 </r>
       <r>     6.1461     0.3349     2.2585 </r>
       <r>     6.2495     0.6712     2.3279 </r>
       <r>     6.3529     0.6797     2.3982 </r>
       <r>     6.4563     0.2953     2.4287 </r>
       <r>     6.5597    -0.0068     2.4280 </r>
       <r>     6.6631     0.0490     2.4331 </r>
       <r>     6.7665     0.3022     2.4643 </r>
       <r>     6.8699     0.4290     2.5087 </r>
       <r>     6.9733     0.3400     2.5438 </r>
       <r>     7.0768     0.3992     2.5851 </r>
       <r>     7.1802     0.6669     2.6541 </r>
       <r>     7.2836     0.7017     2.7267 </r>
       <r>     7.3870     0.4832     2.7766 </r>
       <r>     7.4904     0.2843     2.8060 </r>
       <r>     7.5938     0.2686     2.8338 </r>
       <r>     7.6972     0.5164     2.8872 </r>
       <r>     7.8006     0.6747     2.9570 </r>
       <r>     7.9040     0.4800     3.0066 </r>
       <r>     8.0074     0.3118     3.0388 </r>
       <r>     8.1109     0.3012     3.0700 </r>
       <r>     8.2143     0.2654     3.0974 </r>
       <r>     8.3177     0.1387     3.1118 </r>
       <r>     8.4211     0.0974     3.1219 </r>
       <r>     8.5245     0.3154     3.1545 </r>
       <r>     8.6279     0.4302     3.1990 </r>
       <r>     8.7313     0.2029     3.2199 </r>
       <r>     8.8347     0.2057     3.2412 </r>
       <r>     8.9381     0.7019     3.3138 </r>
       <r>     9.0416     1.0559     3.4230 </r>
       <r>     9.1450     0.8393     3.5098 </r>
       <r>     9.2484     0.3365     3.5446 </r>
       <r>     9.3518     0.0901     3.5539 </r>
       <r>     9.4552     0.3921     3.5944 </r>
       <r>     9.5586     0.7650     3.6735 </r>
       <r>     9.6620     0.6882     3.7447 </r>
       <r>     9.7654     0.4419     3.7904 </r>
       <r>     9.8688     0.2807     3.8194 </r>
       <r>     9.9722     0.2107     3.8412 </r>
       <r>    10.0757     0.2708     3.8692 </r>
       <r>    10.1791     0.2796     3.8981 </r>
       <r>    10.2825     0.1449     3.9131 </r>
       <r>    10.3859     0.3104     3.9452 </r>
       <r>    10.4893     0.6745     4.0150 </r>
       <r>    10.5927     0.5838     4.0753 </r>
       <r>    10.6961     0.4156     4.1183 </r>
       <r>    10.7995     0.6453     4.1851 </r>
       <r>    10.9029     0.7159     4.2591 </r>
       <r>    11.0064     0.4914     4.3099 </r>
       <r>    11.1098     0.5508     4.3669 </r>
       <r>    11.2132     0.7423     4.4436 </r>
       <r>    11.3166     0.5369     4.4991 </r>
       <r>    11.4200     0.1655     4.5163 </r>
       <r>    11.5234     0.0288     4.5192 </r>
       <r>    11.6268     0.1429     4.5340 </r>
       <r>    11.7302     0.5036     4.5861 </r>
       <r>    11.8336     0.8713     4.6762 </r>
       <r>    11.9371     0.7422     4.7529 </r>
       <r>    12.0405     0.3205     4.7861 </r>
       <r>    12.1439     0.2201     4.8088 </r>
       <r>    12.2473     0.5195     4.8626 </r>
       <r>    12.3507     0.5819     4.9227 </r>
       <r>    12.4541     0.3839     4.9624 </r>
       <r>    12.5575     0.5850     5.0229 </r>
       <r>    12.6609     0.9206     5.1181 </r>
       <r>    12.7643     0.7876     5.1996 </r>
       <r>    12.8677     0.4922     5.2505 </r>
       <r>    12.9712     0.4617     5.2982 </r>
       <r>    13.0746     0.3945     5.3390 </r>
       <r>    13.1780     0.3015     5.3702 </r>
       <r>    13.2814     0.3553     5.4069 </r>
       <r>    13.3848     0.5143     5.4601 </r>
       <r>    13.4882     0.7581     5.5385 </r>
       <r>    13.5916     0.8170     5.6230 </r>
       <r>    13.6950     0.5432     5.6792 </r>
       <r>    13.7984     0.4402     5.7247 </r>
       <r>    13.9019     0.5115     5.7776 </r>
       <r>    14.0053     0.4958     5.8289 </r>
       <r>    14.1087     0.4578     5.8762 </r>
       <r>    14.2121     0.5024     5.9282 </r>
       <r>    14.3155     0.5609     5.9862 </r>
       <r>    14.4189     0.4132     6.0289 </r>
       <r>    14.5223     0.3361     6.0637 </r>
       <r>    14.6257     0.5491     6.1204 </r>
       <r>    14.7291     0.8095     6.2042 </r>
       <r>    14.8326     0.9253     6.2998 </r>
       <r>    14.9360     1.0250     6.4058 </r>
       <r>    15.0394     0.8223     6.4909 </r>
       <r>    15.1428     0.4216     6.5345 </r>
       <r>    15.2462     0.2458     6.5599 </r>
       <r>    15.3496     0.2852     6.5894 </r>
       <r>    15.4530     0.3907     6.6298 </r>
       <r>    15.5564     0.4453     6.6758 </r>
       <r>    15.6598     0.3870     6.7159 </r>
       <r>    15.7632     0.4626     6.7637 </r>
       <r>    15.8667     0.6474     6.8306 </r>
       <r>    15.9701     0.5136     6.8838 </r>
       <r>    16.0735     0.2826     6.9130 </r>
       <r>    16.1769     0.4504     6.9596 </r>
       <r>    16.2803     0.8476     7.0472 </r>
       <r>    16.3837     0.9166     7.1420 </r>
       <r>    16.4871     0.7007     7.2144 </r>
       <r>    16.5905     0.5315     7.2694 </r>
       <r>    16.6939     0.5444     7.3257 </r>
       <r>    16.7974     0.5681     7.3845 </r>
       <r>    16.9008     0.3407     7.4197 </r>
       <r>    17.0042     0.1445     7.4346 </r>
       <r>    17.1076     0.2512     7.4606 </r>
       <r>    17.2110     0.4213     7.5042 </r>
       <r>    17.3144     0.5915     7.5653 </r>
       <r>    17.4178     0.6990     7.6376 </r>
       <r>    17.5212     0.5883     7.6984 </r>
       <r>    17.6246     0.7259     7.7735 </r>
       <r>    17.7280     0.9697     7.8738 </r>
       <r>    17.8315     0.5328     7.9289 </r>
       <r>    17.9349     0.1244     7.9417 </r>
       <r>    18.0383     0.4088     7.9840 </r>
       <r>    18.1417     0.6233     8.0485 </r>
       <r>    18.2451     0.4009     8.0899 </r>
       <r>    18.3485     0.2815     8.1190 </r>
       <r>    18.4519     0.4057     8.1610 </r>
       <r>    18.5553     0.5604     8.2189 </r>
       <r>    18.6587     0.4967     8.2703 </r>
       <r>    18.7622     0.3208     8.3035 </r>
       <r>    18.8656     0.5750     8.3630 </r>
       <r>    18.9690     1.0487     8.4714 </r>
       <r>    19.0724     0.9027     8.5647 </r>
       <r>    19.1758     0.4935     8.6158 </r>
       <r>    19.2792     0.7129     8.6895 </r>
       <r>    19.3826     0.9243     8.7851 </r>
       <r>    19.4860     0.5892     8.8460 </r>
       <r>    19.5894     0.2888     8.8759 </r>
       <r>    19.6929     0.3647     8.9136 </r>
       <r>    19.7963     0.3204     8.9467 </r>
       <r>    19.8997     0.0609     8.9530 </r>
       <r>    20.0031     0.0774     8.9610 </r>
       <r>    20.1065     0.4360     9.0061 </r>
       <r>    20.2099     0.8666     9.0957 </r>
       <r>    20.3133     0.9464     9.1936 </r>
       <r>    20.4167     0.7420     9.2703 </r>
       <r>    20.5201     0.5903     9.3314 </r>
       <r>    20.6235     0.4183     9.3746 </r>
       <r>    20.7270     0.3767     9.4136 </r>
       <r>    20.8304     0.5303     9.4684 </r>
       <r>    20.9338     0.6272     9.5333 </r>
       <r>    21.0372     0.4694     9.5818 </r>
       <r>    21.1406     0.2342     9.6060 </r>
       <r>    21.2440     0.2323     9.6301 </r>
       <r>    21.3474     0.3165     9.6628 </r>
       <r>    21.4508     0.3252     9.6964 </r>
       <r>    21.5542     0.3267     9.7302 </r>
       <r>    21.6577     0.3167     9.7629 </r>
       <r>    21.7611     0.2430     9.7881 </r>
       <r>    21.8645     0.1486     9.8034 </r>
       <r>    21.9679     0.2659     9.8309 </r>
       <r>    22.0713     0.4050     9.8728 </r>
       <r>    22.1747     0.2920     9.9030 </r>
       <r>    22.2781     0.1301     9.9165 </r>
       <r>    22.3815     0.1687     9.9339 </r>
       <r>    22.4849     0.2216     9.9568 </r>
       <r>    22.5884     0.1589     9.9733 </r>
       <r>    22.6918     0.0833     9.9819 </r>
       <r>    22.7952     0.0501     9.9871 </r>
       <r>    22.8986     0.0422     9.9914 </r>
       <r>    23.0020     0.0189     9.9934 </r>
       <r>    23.1054    -0.0014     9.9932 </r>
       <r>    23.2088    -0.0021     9.9930 </r>
       <r>    23.3122     0.0002     9.9930 </r>
       <r>    23.4156     0.0004     9.9931 </r>
       <r>    23.5190     0.0002     9.9931 </r>
       <r>    23.6225    -0.0017     9.9929 </r>
       <r>    23.7259    -0.0018     9.9927 </r>
       <r>    23.8293     0.0146     9.9942 </r>
       <r>    23.9327     0.0344     9.9978 </r>
       <r>    24.0361     0.0227    10.0001 </r>
       <r>    24.1395     0.0012    10.0003 </r>
       <r>    24.2429    -0.0025    10.0000 </r>
       <r>    24.3463    -0.0002    10.0000 </r>
       <r>    24.4497     0.0002    10.0000 </r>
       <r>    24.5532     0.0001    10.0000 </r>
       <r>    24.6566     0.0000    10.0000 </r>
       <r>    24.7600     0.0000    10.0000 </r>
       <r>    24.8634     0.0000    10.0000 </r>
       <r>    24.9668     0.0000    10.0000 </r>
       <r>    25.0702     0.0000    10.0000 </r>
       <r>    25.1736     0.0000    10.0000 </r>
       <r>    25.2770     0.0000    10.0000 </r>
       <r>    25.3804     0.0000    10.0000 </r>
       <r>    25.4838     0.0000    10.0000 </r>
       <r>    25.5873     0.0000    10.0000 </r>
       <r>    25.6907     0.0000    10.0000 </r>
       <r>    25.7941     0.0000    10.0000 </r>
       <r>    25.8975     0.0000    10.0000 </r>
      </set>
     </set>
    </array>
   </total>
  </dos>
 </calculation>
 <structure name="finalpos" >
  <crystal>
   <varray name="basis" >
    <v>      -2.01900619      -0.00000000       2.01900619 </v>
    <v>       0.00000000       2.01900619       2.01900619 </v>
    <v>      -2.01900619       2.01900619      -0.00000000 </v>
   </varray>
   <i name="volume">     16.46049703 </i>
   <varray name="rec_basis" >
    <v>      -0.24764659      -0.24764659       0.24764659 </v>
    <v>       0.24764659       0.24764659       0.24764659 </v>
    <v>      -0.24764659       0.24764659      -0.24764659 </v>
   </varray>
  </crystal>
  <varray name="positions" >
   <v>       0.00000000       0.00000000       0.00000000 </v>
  </varray>
 </structure>
</modeling>
